<?xml version="1.0" encoding="UTF-8"?>

<!-- generated on 2024-02-02 18:45:38 by Eclipse SUMO sumo Version 1.18.0
<configuration xmlns:xsi="http://www.w3.org/2001/XMLSchema-instance" xsi:noNamespaceSchemaLocation="http://sumo.dlr.de/xsd/sumoConfiguration.xsd">

    <input>
        <net-file value="../config_3/road_network.net.xml"/>
        <route-files value="../config_3/road_network_map.rou.xml"/>
        <additional-files value="../config_3/road_network_additional.add.xml"/>
    </input>

    <output>
        <tripinfo-output value="../config_3/tripinfo.xml"/>
    </output>

    <traci_server>
        <remote-port value="50891"/>
    </traci_server>

</configuration>
-->

<tripinfos xmlns:xsi="http://www.w3.org/2001/XMLSchema-instance" xsi:noNamespaceSchemaLocation="http://sumo.dlr.de/xsd/tripinfo_file.xsd">
    <tripinfo id="20" depart="10.00" departLane="E13_0" departPos="5.10" departSpeed="0.00" departDelay="0.00" arrival="28.00" arrivalLane="-E0_0" arrivalPos="89.60" arrivalSpeed="20.34" duration="18.00" routeLength="197.32" waitingTime="0.00" waitingCount="0" stopTime="0.00" timeLoss="9.59" rerouteNo="0" devices="tripinfo_20" vType="DEFAULT_VEHTYPE" speedFactor="1.02" vaporized=""/>
    <tripinfo id="72" depart="38.00" departLane="-E22_0" departPos="5.10" departSpeed="0.00" departDelay="2.00" arrival="59.00" arrivalLane="-E3_0" arrivalPos="89.60" arrivalSpeed="21.28" duration="21.00" routeLength="197.32" waitingTime="0.00" waitingCount="0" stopTime="0.00" timeLoss="12.49" rerouteNo="0" devices="tripinfo_72" vType="DEFAULT_VEHTYPE" speedFactor="0.94" vaporized=""/>
    <tripinfo id="22" depart="11.00" departLane="-E11_0" departPos="5.10" departSpeed="0.00" departDelay="0.00" arrival="63.00" arrivalLane="-E3_1" arrivalPos="89.60" arrivalSpeed="19.72" duration="52.00" routeLength="881.68" waitingTime="0.00" waitingCount="0" stopTime="0.00" timeLoss="18.75" rerouteNo="0" devices="tripinfo_22" vType="DEFAULT_VEHTYPE" speedFactor="0.97" vaporized=""/>
    <tripinfo id="95" depart="50.00" departLane="-E22_0" departPos="5.10" departSpeed="0.00" departDelay="2.50" arrival="68.00" arrivalLane="-E3_0" arrivalPos="89.60" arrivalSpeed="22.06" duration="18.00" routeLength="197.32" waitingTime="0.00" waitingCount="0" stopTime="0.00" timeLoss="9.85" rerouteNo="0" devices="tripinfo_95" vType="DEFAULT_VEHTYPE" speedFactor="1.06" vaporized=""/>
    <tripinfo id="26" depart="14.00" departLane="-E20_0" departPos="5.10" departSpeed="0.00" departDelay="1.00" arrival="70.00" arrivalLane="E6_0" arrivalPos="89.60" arrivalSpeed="20.27" duration="56.00" routeLength="899.74" waitingTime="3.00" waitingCount="1" stopTime="0.00" timeLoss="19.99" rerouteNo="0" devices="tripinfo_26" vType="DEFAULT_VEHTYPE" speedFactor="0.92" vaporized=""/>
    <tripinfo id="46" depart="23.00" departLane="E13_0" departPos="5.10" departSpeed="0.00" departDelay="0.00" arrival="71.00" arrivalLane="E11_1" arrivalPos="89.60" arrivalSpeed="21.51" duration="48.00" routeLength="781.68" waitingTime="0.00" waitingCount="0" stopTime="0.00" timeLoss="18.97" rerouteNo="0" devices="tripinfo_46" vType="DEFAULT_VEHTYPE" speedFactor="1.00" vaporized=""/>
    <tripinfo id="102" depart="56.00" departLane="-E22_0" departPos="5.10" departSpeed="0.00" departDelay="5.00" arrival="74.00" arrivalLane="-E3_0" arrivalPos="89.60" arrivalSpeed="20.88" duration="18.00" routeLength="197.32" waitingTime="0.00" waitingCount="0" stopTime="0.00" timeLoss="9.68" rerouteNo="0" devices="tripinfo_102" vType="DEFAULT_VEHTYPE" speedFactor="0.97" vaporized=""/>
    <tripinfo id="35" depart="20.00" departLane="-E20_0" departPos="5.10" departSpeed="0.00" departDelay="2.50" arrival="77.00" arrivalLane="E6_0" arrivalPos="89.60" arrivalSpeed="21.20" duration="57.00" routeLength="899.74" waitingTime="0.00" waitingCount="0" stopTime="0.00" timeLoss="24.60" rerouteNo="0" devices="tripinfo_35" vType="DEFAULT_VEHTYPE" speedFactor="1.02" vaporized=""/>
    <tripinfo id="1" depart="1.00" departLane="-E20_0" departPos="5.10" departSpeed="0.00" departDelay="0.50" arrival="84.00" arrivalLane="-E3_1" arrivalPos="89.60" arrivalSpeed="19.95" duration="83.00" routeLength="1690.71" waitingTime="0.00" waitingCount="0" stopTime="0.00" timeLoss="19.62" rerouteNo="0" devices="tripinfo_1" vType="DEFAULT_VEHTYPE" speedFactor="0.94" vaporized=""/>
    <tripinfo id="2" depart="1.00" departLane="E13_0" departPos="5.10" departSpeed="0.00" departDelay="0.00" arrival="84.00" arrivalLane="E20_1" arrivalPos="89.60" arrivalSpeed="28.66" duration="83.00" routeLength="1590.71" waitingTime="2.00" waitingCount="1" stopTime="0.00" timeLoss="27.25" rerouteNo="0" devices="tripinfo_2" vType="DEFAULT_VEHTYPE" speedFactor="1.01" vaporized=""/>
    <tripinfo id="5" depart="4.00" departLane="-E20_0" departPos="5.10" departSpeed="0.00" departDelay="1.50" arrival="87.00" arrivalLane="E16_1" arrivalPos="89.60" arrivalSpeed="20.02" duration="83.00" routeLength="1381.78" waitingTime="0.00" waitingCount="0" stopTime="0.00" timeLoss="23.35" rerouteNo="0" devices="tripinfo_5" vType="DEFAULT_VEHTYPE" speedFactor="0.83" vaporized=""/>
    <tripinfo id="74" depart="39.00" departLane="-E20_0" departPos="5.10" departSpeed="0.00" departDelay="2.00" arrival="87.00" arrivalLane="-E7_1" arrivalPos="89.60" arrivalSpeed="21.97" duration="48.00" routeLength="897.32" waitingTime="0.00" waitingCount="0" stopTime="0.00" timeLoss="15.33" rerouteNo="0" devices="tripinfo_74" vType="DEFAULT_VEHTYPE" speedFactor="0.96" vaporized=""/>
    <tripinfo id="89" depart="46.00" departLane="-E22_0" departPos="5.10" departSpeed="0.00" departDelay="1.50" arrival="92.00" arrivalLane="E11_0" arrivalPos="89.60" arrivalSpeed="22.41" duration="46.00" routeLength="897.32" waitingTime="0.00" waitingCount="0" stopTime="0.00" timeLoss="14.20" rerouteNo="0" devices="tripinfo_89" vType="DEFAULT_VEHTYPE" speedFactor="1.02" vaporized=""/>
    <tripinfo id="144" depart="72.00" departLane="-E22_0" departPos="5.10" departSpeed="0.00" departDelay="0.00" arrival="93.00" arrivalLane="-E3_0" arrivalPos="89.60" arrivalSpeed="21.00" duration="21.00" routeLength="197.32" waitingTime="0.00" waitingCount="0" stopTime="0.00" timeLoss="9.41" rerouteNo="0" devices="tripinfo_144" vType="DEFAULT_VEHTYPE" speedFactor="0.73" vaporized=""/>
    <tripinfo id="81" depart="45.00" departLane="-E20_0" departPos="5.10" departSpeed="0.00" departDelay="4.50" arrival="94.00" arrivalLane="E6_0" arrivalPos="89.60" arrivalSpeed="21.10" duration="49.00" routeLength="899.74" waitingTime="0.00" waitingCount="0" stopTime="0.00" timeLoss="15.13" rerouteNo="0" devices="tripinfo_81" vType="DEFAULT_VEHTYPE" speedFactor="1.00" vaporized=""/>
    <tripinfo id="50" depart="28.00" departLane="-E11_0" departPos="5.10" departSpeed="0.00" departDelay="3.00" arrival="96.00" arrivalLane="E21_1" arrivalPos="89.60" arrivalSpeed="23.48" duration="68.00" routeLength="1288.29" waitingTime="0.00" waitingCount="0" stopTime="0.00" timeLoss="16.11" rerouteNo="0" devices="tripinfo_50" vType="DEFAULT_VEHTYPE" speedFactor="0.85" vaporized=""/>
    <tripinfo id="34" depart="17.00" departLane="-E21_0" departPos="5.10" departSpeed="0.00" departDelay="0.00" arrival="99.00" arrivalLane="-E3_0" arrivalPos="89.60" arrivalSpeed="21.55" duration="82.00" routeLength="597.32" waitingTime="22.00" waitingCount="3" stopTime="0.00" timeLoss="60.28" rerouteNo="0" devices="tripinfo_34" vType="DEFAULT_VEHTYPE" speedFactor="0.99" vaporized=""/>
    <tripinfo id="61" depart="33.00" departLane="E13_0" departPos="5.10" departSpeed="0.00" departDelay="2.50" arrival="99.00" arrivalLane="E16_1" arrivalPos="89.60" arrivalSpeed="20.84" duration="66.00" routeLength="998.40" waitingTime="10.00" waitingCount="1" stopTime="0.00" timeLoss="34.40" rerouteNo="0" devices="tripinfo_61" vType="DEFAULT_VEHTYPE" speedFactor="1.12" vaporized=""/>
    <tripinfo id="60" depart="30.00" departLane="E13_0" departPos="5.10" departSpeed="0.00" departDelay="0.00" arrival="100.00" arrivalLane="E16_0" arrivalPos="89.60" arrivalSpeed="21.14" duration="70.00" routeLength="998.40" waitingTime="11.00" waitingCount="1" stopTime="0.00" timeLoss="37.35" rerouteNo="0" devices="tripinfo_60" vType="DEFAULT_VEHTYPE" speedFactor="1.08" vaporized=""/>
    <tripinfo id="104" depart="52.00" departLane="-E21_0" departPos="5.10" departSpeed="0.00" departDelay="0.00" arrival="100.00" arrivalLane="E6_1" arrivalPos="89.60" arrivalSpeed="21.98" duration="48.00" routeLength="588.29" waitingTime="0.00" waitingCount="0" stopTime="0.00" timeLoss="24.42" rerouteNo="0" devices="tripinfo_104" vType="DEFAULT_VEHTYPE" speedFactor="0.89" vaporized=""/>
    <tripinfo id="42" depart="21.00" departLane="-E21_0" departPos="5.10" departSpeed="0.00" departDelay="0.00" arrival="101.00" arrivalLane="-E3_0" arrivalPos="89.60" arrivalSpeed="21.88" duration="80.00" routeLength="597.32" waitingTime="17.00" waitingCount="2" stopTime="0.00" timeLoss="60.28" rerouteNo="0" devices="tripinfo_42" vType="DEFAULT_VEHTYPE" speedFactor="1.09" vaporized=""/>
    <tripinfo id="25" depart="13.00" departLane="-E21_0" departPos="5.10" departSpeed="0.00" departDelay="0.50" arrival="109.00" arrivalLane="-E3_0" arrivalPos="89.60" arrivalSpeed="19.94" duration="96.00" routeLength="597.32" waitingTime="33.00" waitingCount="6" stopTime="0.00" timeLoss="71.30" rerouteNo="0" devices="tripinfo_25" vType="DEFAULT_VEHTYPE" speedFactor="0.87" vaporized=""/>
    <tripinfo id="105" depart="57.00" departLane="-E20_0" departPos="5.10" departSpeed="0.00" departDelay="4.50" arrival="115.00" arrivalLane="E21_1" arrivalPos="89.60" arrivalSpeed="31.67" duration="58.00" routeLength="1297.06" waitingTime="0.00" waitingCount="0" stopTime="0.00" timeLoss="15.68" rerouteNo="0" devices="tripinfo_105" vType="DEFAULT_VEHTYPE" speedFactor="1.07" vaporized=""/>
    <tripinfo id="153" depart="77.00" departLane="-E21_0" departPos="5.10" departSpeed="0.00" departDelay="0.50" arrival="118.00" arrivalLane="E22_0" arrivalPos="89.60" arrivalSpeed="20.20" duration="41.00" routeLength="599.74" waitingTime="0.00" waitingCount="0" stopTime="0.00" timeLoss="16.08" rerouteNo="0" devices="tripinfo_153" vType="DEFAULT_VEHTYPE" speedFactor="0.93" vaporized=""/>
    <tripinfo id="90" depart="45.00" departLane="E13_0" departPos="5.10" departSpeed="0.00" departDelay="0.00" arrival="119.00" arrivalLane="E20_1" arrivalPos="89.60" arrivalSpeed="30.02" duration="74.00" routeLength="1590.71" waitingTime="0.00" waitingCount="0" stopTime="0.00" timeLoss="18.44" rerouteNo="0" devices="tripinfo_90" vType="DEFAULT_VEHTYPE" speedFactor="1.02" vaporized=""/>
    <tripinfo id="122" depart="63.00" departLane="-E20_0" departPos="5.10" departSpeed="0.00" departDelay="2.00" arrival="121.00" arrivalLane="E21_0" arrivalPos="89.60" arrivalSpeed="30.77" duration="58.00" routeLength="1297.06" waitingTime="0.00" waitingCount="0" stopTime="0.00" timeLoss="13.91" rerouteNo="0" devices="tripinfo_122" vType="DEFAULT_VEHTYPE" speedFactor="1.03" vaporized=""/>
    <tripinfo id="172" depart="86.00" departLane="-E21_0" departPos="5.10" departSpeed="0.00" departDelay="0.00" arrival="128.00" arrivalLane="E22_0" arrivalPos="89.60" arrivalSpeed="18.76" duration="42.00" routeLength="599.74" waitingTime="0.00" waitingCount="0" stopTime="0.00" timeLoss="15.82" rerouteNo="0" devices="tripinfo_172" vType="DEFAULT_VEHTYPE" speedFactor="0.89" vaporized=""/>
    <tripinfo id="234" depart="117.00" departLane="E13_0" departPos="5.10" departSpeed="0.00" departDelay="0.00" arrival="137.00" arrivalLane="-E0_0" arrivalPos="89.60" arrivalSpeed="20.69" duration="20.00" routeLength="197.32" waitingTime="0.00" waitingCount="0" stopTime="0.00" timeLoss="10.42" rerouteNo="0" devices="tripinfo_234" vType="DEFAULT_VEHTYPE" speedFactor="0.91" vaporized=""/>
    <tripinfo id="137" depart="69.00" departLane="-E16_0" departPos="5.10" departSpeed="0.00" departDelay="0.50" arrival="138.00" arrivalLane="-E13_1" arrivalPos="89.60" arrivalSpeed="30.31" duration="69.00" routeLength="988.08" waitingTime="11.00" waitingCount="1" stopTime="0.00" timeLoss="34.73" rerouteNo="0" devices="tripinfo_137" vType="DEFAULT_VEHTYPE" speedFactor="1.02" vaporized=""/>
    <tripinfo id="189" depart="97.00" departLane="-E21_0" departPos="5.10" departSpeed="0.00" departDelay="2.50" arrival="139.00" arrivalLane="E22_0" arrivalPos="89.60" arrivalSpeed="19.96" duration="42.00" routeLength="599.74" waitingTime="0.00" waitingCount="0" stopTime="0.00" timeLoss="17.33" rerouteNo="0" devices="tripinfo_189" vType="DEFAULT_VEHTYPE" speedFactor="0.97" vaporized=""/>
    <tripinfo id="152" depart="76.00" departLane="-E16_0" departPos="5.10" departSpeed="0.00" departDelay="0.00" arrival="141.00" arrivalLane="-E13_1" arrivalPos="89.60" arrivalSpeed="31.23" duration="65.00" routeLength="988.08" waitingTime="5.00" waitingCount="1" stopTime="0.00" timeLoss="32.34" rerouteNo="0" devices="tripinfo_152" vType="DEFAULT_VEHTYPE" speedFactor="1.07" vaporized=""/>
    <tripinfo id="71" depart="36.00" departLane="-E20_0" departPos="5.10" departSpeed="0.00" departDelay="0.50" arrival="146.00" arrivalLane="E22_0" arrivalPos="89.60" arrivalSpeed="24.30" duration="110.00" routeLength="1697.32" waitingTime="17.00" waitingCount="3" stopTime="0.00" timeLoss="50.69" rerouteNo="0" devices="tripinfo_71" vType="DEFAULT_VEHTYPE" speedFactor="0.97" vaporized=""/>
    <tripinfo id="96" depart="54.00" departLane="-E20_0" departPos="5.10" departSpeed="0.00" departDelay="6.00" arrival="147.00" arrivalLane="E6_0" arrivalPos="89.60" arrivalSpeed="21.80" duration="93.00" routeLength="899.74" waitingTime="37.00" waitingCount="1" stopTime="0.00" timeLoss="60.04" rerouteNo="0" devices="tripinfo_96" vType="DEFAULT_VEHTYPE" speedFactor="1.01" vaporized=""/>
    <tripinfo id="129" depart="69.00" departLane="-E20_0" departPos="5.10" departSpeed="0.00" departDelay="4.50" arrival="148.00" arrivalLane="E6_0" arrivalPos="89.60" arrivalSpeed="21.80" duration="79.00" routeLength="899.74" waitingTime="21.00" waitingCount="1" stopTime="0.00" timeLoss="45.73" rerouteNo="0" devices="tripinfo_129" vType="DEFAULT_VEHTYPE" speedFactor="1.01" vaporized=""/>
    <tripinfo id="183" depart="92.00" departLane="-E20_0" departPos="5.10" departSpeed="0.00" departDelay="0.50" arrival="148.00" arrivalLane="E21_1" arrivalPos="89.60" arrivalSpeed="31.33" duration="56.00" routeLength="1297.06" waitingTime="0.00" waitingCount="0" stopTime="0.00" timeLoss="13.76" rerouteNo="0" devices="tripinfo_183" vType="DEFAULT_VEHTYPE" speedFactor="1.08" vaporized=""/>
    <tripinfo id="106" depart="62.00" departLane="-E22_0" departPos="5.10" departSpeed="0.00" departDelay="9.00" arrival="149.00" arrivalLane="E11_0" arrivalPos="89.60" arrivalSpeed="20.04" duration="87.00" routeLength="897.32" waitingTime="33.00" waitingCount="1" stopTime="0.00" timeLoss="55.48" rerouteNo="0" devices="tripinfo_106" vType="DEFAULT_VEHTYPE" speedFactor="1.01" vaporized=""/>
    <tripinfo id="123" depart="66.00" departLane="-E20_0" departPos="5.10" departSpeed="0.00" departDelay="4.50" arrival="149.00" arrivalLane="-E7_0" arrivalPos="89.60" arrivalSpeed="21.56" duration="83.00" routeLength="897.32" waitingTime="29.00" waitingCount="1" stopTime="0.00" timeLoss="52.44" rerouteNo="0" devices="tripinfo_123" vType="DEFAULT_VEHTYPE" speedFactor="1.02" vaporized=""/>
    <tripinfo id="192" depart="96.00" departLane="-E22_0" departPos="5.10" departSpeed="0.00" departDelay="0.00" arrival="150.00" arrivalLane="-E3_0" arrivalPos="89.60" arrivalSpeed="20.62" duration="54.00" routeLength="197.32" waitingTime="29.00" waitingCount="1" stopTime="0.00" timeLoss="46.52" rerouteNo="0" devices="tripinfo_192" vType="DEFAULT_VEHTYPE" speedFactor="1.10" vaporized=""/>
    <tripinfo id="8" depart="6.00" departLane="-E20_0" departPos="5.10" departSpeed="0.00" departDelay="2.00" arrival="151.00" arrivalLane="E16_1" arrivalPos="89.60" arrivalSpeed="18.77" duration="145.00" routeLength="1381.78" waitingTime="65.00" waitingCount="1" stopTime="0.00" timeLoss="92.71" rerouteNo="0" devices="tripinfo_8" vType="DEFAULT_VEHTYPE" speedFactor="0.94" vaporized=""/>
    <tripinfo id="21" depart="11.00" departLane="-E20_0" departPos="5.10" departSpeed="0.00" departDelay="0.50" arrival="154.00" arrivalLane="-E3_1" arrivalPos="89.60" arrivalSpeed="19.89" duration="143.00" routeLength="1690.71" waitingTime="47.00" waitingCount="4" stopTime="0.00" timeLoss="84.96" rerouteNo="0" devices="tripinfo_21" vType="DEFAULT_VEHTYPE" speedFactor="1.01" vaporized=""/>
    <tripinfo id="28" depart="15.00" departLane="-E16_0" departPos="5.10" departSpeed="0.00" departDelay="1.00" arrival="155.00" arrivalLane="E21_0" arrivalPos="89.60" arrivalSpeed="33.04" duration="140.00" routeLength="1803.64" waitingTime="63.00" waitingCount="1" stopTime="0.00" timeLoss="86.09" rerouteNo="0" devices="tripinfo_28" vType="DEFAULT_VEHTYPE" speedFactor="1.13" vaporized=""/>
    <tripinfo id="100" depart="53.00" departLane="E7_0" departPos="5.10" departSpeed="0.00" departDelay="3.00" arrival="156.00" arrivalLane="E6_1" arrivalPos="89.60" arrivalSpeed="20.16" duration="103.00" routeLength="188.29" waitingTime="69.00" waitingCount="1" stopTime="0.00" timeLoss="95.94" rerouteNo="0" devices="tripinfo_100" vType="DEFAULT_VEHTYPE" speedFactor="1.06" vaporized=""/>
    <tripinfo id="200" depart="102.00" departLane="-E22_0" departPos="5.10" departSpeed="0.00" departDelay="2.00" arrival="156.00" arrivalLane="-E3_0" arrivalPos="89.60" arrivalSpeed="20.43" duration="54.00" routeLength="197.32" waitingTime="26.00" waitingCount="1" stopTime="0.00" timeLoss="44.85" rerouteNo="0" devices="tripinfo_200" vType="DEFAULT_VEHTYPE" speedFactor="0.95" vaporized=""/>
    <tripinfo id="47" depart="25.00" departLane="-E11_0" departPos="5.10" departSpeed="0.00" departDelay="1.50" arrival="157.00" arrivalLane="-E7_0" arrivalPos="89.60" arrivalSpeed="21.37" duration="132.00" routeLength="1688.29" waitingTime="37.00" waitingCount="2" stopTime="0.00" timeLoss="67.44" rerouteNo="0" devices="tripinfo_47" vType="DEFAULT_VEHTYPE" speedFactor="0.90" vaporized=""/>
    <tripinfo id="274" depart="138.00" departLane="E13_0" departPos="5.10" departSpeed="0.00" departDelay="1.00" arrival="157.00" arrivalLane="-E0_0" arrivalPos="89.60" arrivalSpeed="17.68" duration="19.00" routeLength="197.32" waitingTime="0.00" waitingCount="0" stopTime="0.00" timeLoss="9.44" rerouteNo="0" devices="tripinfo_274" vType="DEFAULT_VEHTYPE" speedFactor="0.85" vaporized=""/>
    <tripinfo id="39" depart="23.00" departLane="-E20_0" departPos="5.10" departSpeed="0.00" departDelay="3.50" arrival="160.00" arrivalLane="-E3_1" arrivalPos="89.60" arrivalSpeed="18.99" duration="137.00" routeLength="1690.71" waitingTime="31.00" waitingCount="3" stopTime="0.00" timeLoss="71.53" rerouteNo="0" devices="tripinfo_39" vType="DEFAULT_VEHTYPE" speedFactor="0.90" vaporized=""/>
    <tripinfo id="207" depart="104.00" departLane="-E16_0" departPos="5.10" departSpeed="0.00" departDelay="0.50" arrival="162.00" arrivalLane="-E0_1" arrivalPos="89.60" arrivalSpeed="18.64" duration="58.00" routeLength="981.47" waitingTime="0.00" waitingCount="0" stopTime="0.00" timeLoss="21.29" rerouteNo="0" devices="tripinfo_207" vType="DEFAULT_VEHTYPE" speedFactor="0.97" vaporized=""/>
    <tripinfo id="212" depart="110.00" departLane="-E22_0" departPos="5.10" departSpeed="0.00" departDelay="4.00" arrival="163.00" arrivalLane="-E3_0" arrivalPos="89.60" arrivalSpeed="20.85" duration="53.00" routeLength="197.32" waitingTime="19.00" waitingCount="1" stopTime="0.00" timeLoss="44.45" rerouteNo="0" devices="tripinfo_212" vType="DEFAULT_VEHTYPE" speedFactor="1.00" vaporized=""/>
    <tripinfo id="226" depart="116.00" departLane="-E22_0" departPos="5.10" departSpeed="0.00" departDelay="3.00" arrival="164.00" arrivalLane="-E3_0" arrivalPos="89.60" arrivalSpeed="20.24" duration="48.00" routeLength="197.32" waitingTime="16.00" waitingCount="1" stopTime="0.00" timeLoss="41.55" rerouteNo="0" devices="tripinfo_226" vType="DEFAULT_VEHTYPE" speedFactor="1.24" vaporized=""/>
    <tripinfo id="107" depart="55.00" departLane="E7_0" departPos="5.10" departSpeed="0.00" departDelay="1.50" arrival="165.00" arrivalLane="E6_1" arrivalPos="89.60" arrivalSpeed="20.65" duration="110.00" routeLength="188.29" waitingTime="69.00" waitingCount="2" stopTime="0.00" timeLoss="102.02" rerouteNo="0" devices="tripinfo_107" vType="DEFAULT_VEHTYPE" speedFactor="1.03" vaporized=""/>
    <tripinfo id="79" depart="42.00" departLane="-E20_0" departPos="5.10" departSpeed="0.00" departDelay="2.50" arrival="168.00" arrivalLane="-E3_1" arrivalPos="89.60" arrivalSpeed="18.91" duration="126.00" routeLength="1690.71" waitingTime="15.00" waitingCount="4" stopTime="0.00" timeLoss="71.83" rerouteNo="0" devices="tripinfo_79" vType="DEFAULT_VEHTYPE" speedFactor="1.09" vaporized=""/>
    <tripinfo id="236" depart="122.00" departLane="-E22_0" departPos="5.10" departSpeed="0.00" departDelay="4.00" arrival="169.00" arrivalLane="-E3_0" arrivalPos="89.60" arrivalSpeed="20.07" duration="47.00" routeLength="197.32" waitingTime="12.00" waitingCount="1" stopTime="0.00" timeLoss="39.26" rerouteNo="0" devices="tripinfo_236" vType="DEFAULT_VEHTYPE" speedFactor="1.04" vaporized=""/>
    <tripinfo id="127" depart="64.00" departLane="E7_0" departPos="5.10" departSpeed="0.00" departDelay="0.50" arrival="173.00" arrivalLane="E6_1" arrivalPos="89.60" arrivalSpeed="19.45" duration="109.00" routeLength="188.29" waitingTime="69.00" waitingCount="3" stopTime="0.00" timeLoss="99.52" rerouteNo="0" devices="tripinfo_127" vType="DEFAULT_VEHTYPE" speedFactor="0.82" vaporized=""/>
    <tripinfo id="168" depart="84.00" departLane="-E20_0" departPos="5.10" departSpeed="0.00" departDelay="0.00" arrival="173.00" arrivalLane="E22_0" arrivalPos="89.60" arrivalSpeed="20.33" duration="89.00" routeLength="1697.32" waitingTime="4.00" waitingCount="1" stopTime="0.00" timeLoss="30.13" rerouteNo="0" devices="tripinfo_168" vType="DEFAULT_VEHTYPE" speedFactor="0.98" vaporized=""/>
    <tripinfo id="231" depart="117.00" departLane="-E20_0" departPos="5.10" departSpeed="0.00" departDelay="1.50" arrival="173.00" arrivalLane="-E7_0" arrivalPos="89.60" arrivalSpeed="21.27" duration="56.00" routeLength="897.32" waitingTime="1.00" waitingCount="1" stopTime="0.00" timeLoss="28.33" rerouteNo="0" devices="tripinfo_231" vType="DEFAULT_VEHTYPE" speedFactor="1.14" vaporized=""/>
    <tripinfo id="63" depart="34.00" departLane="-E11_0" departPos="5.10" departSpeed="0.00" departDelay="2.50" arrival="175.00" arrivalLane="E6_0" arrivalPos="89.60" arrivalSpeed="22.36" duration="141.00" routeLength="1690.71" waitingTime="46.00" waitingCount="2" stopTime="0.00" timeLoss="80.94" rerouteNo="0" devices="tripinfo_63" vType="DEFAULT_VEHTYPE" speedFactor="0.99" vaporized=""/>
    <tripinfo id="149" depart="75.00" departLane="-E11_0" departPos="5.10" departSpeed="0.00" departDelay="0.50" arrival="175.00" arrivalLane="E22_0" arrivalPos="89.60" arrivalSpeed="21.66" duration="100.00" routeLength="888.29" waitingTime="26.00" waitingCount="3" stopTime="0.00" timeLoss="70.18" rerouteNo="0" devices="tripinfo_149" vType="DEFAULT_VEHTYPE" speedFactor="1.04" vaporized=""/>
    <tripinfo id="154" depart="77.00" departLane="E13_0" departPos="5.10" departSpeed="0.00" departDelay="0.00" arrival="177.00" arrivalLane="E22_0" arrivalPos="89.60" arrivalSpeed="22.05" duration="100.00" routeLength="1488.29" waitingTime="14.00" waitingCount="1" stopTime="0.00" timeLoss="52.07" rerouteNo="0" devices="tripinfo_154" vType="DEFAULT_VEHTYPE" speedFactor="1.06" vaporized=""/>
    <tripinfo id="128" depart="66.00" departLane="-E11_0" departPos="5.10" departSpeed="0.00" departDelay="2.00" arrival="180.00" arrivalLane="-E3_1" arrivalPos="89.60" arrivalSpeed="19.74" duration="114.00" routeLength="881.68" waitingTime="41.00" waitingCount="4" stopTime="0.00" timeLoss="85.94" rerouteNo="0" devices="tripinfo_128" vType="DEFAULT_VEHTYPE" speedFactor="1.12" vaporized=""/>
    <tripinfo id="247" depart="126.00" departLane="-E21_0" departPos="5.10" departSpeed="0.00" departDelay="2.50" arrival="185.00" arrivalLane="E20_1" arrivalPos="89.60" arrivalSpeed="30.57" duration="59.00" routeLength="1288.08" waitingTime="0.00" waitingCount="0" stopTime="0.00" timeLoss="16.06" rerouteNo="0" devices="tripinfo_247" vType="DEFAULT_VEHTYPE" speedFactor="1.04" vaporized=""/>
    <tripinfo id="55" depart="29.00" departLane="E3_0" departPos="5.10" departSpeed="0.00" departDelay="1.50" arrival="189.00" arrivalLane="-E3_0" arrivalPos="89.60" arrivalSpeed="20.76" duration="160.00" routeLength="2377.49" waitingTime="27.00" waitingCount="1" stopTime="0.00" timeLoss="74.96" rerouteNo="0" devices="tripinfo_55" vType="DEFAULT_VEHTYPE" speedFactor="1.00" vaporized=""/>
    <tripinfo id="147" depart="74.00" departLane="E13_0" departPos="5.10" departSpeed="0.00" departDelay="0.50" arrival="190.00" arrivalLane="E16_0" arrivalPos="89.60" arrivalSpeed="20.47" duration="116.00" routeLength="998.40" waitingTime="54.00" waitingCount="2" stopTime="0.00" timeLoss="81.42" rerouteNo="0" devices="tripinfo_147" vType="DEFAULT_VEHTYPE" speedFactor="1.00" vaporized=""/>
    <tripinfo id="163" depart="82.00" departLane="-E21_0" departPos="5.10" departSpeed="0.00" departDelay="0.50" arrival="190.00" arrivalLane="E6_0" arrivalPos="89.60" arrivalSpeed="21.54" duration="108.00" routeLength="588.29" waitingTime="59.00" waitingCount="2" stopTime="0.00" timeLoss="89.20" rerouteNo="0" devices="tripinfo_163" vType="DEFAULT_VEHTYPE" speedFactor="1.13" vaporized=""/>
    <tripinfo id="223" depart="112.00" departLane="E13_0" departPos="5.10" departSpeed="0.00" departDelay="0.50" arrival="190.00" arrivalLane="E16_1" arrivalPos="89.60" arrivalSpeed="22.10" duration="78.00" routeLength="998.40" waitingTime="16.00" waitingCount="2" stopTime="0.00" timeLoss="44.81" rerouteNo="0" devices="tripinfo_223" vType="DEFAULT_VEHTYPE" speedFactor="1.06" vaporized=""/>
    <tripinfo id="228" depart="115.00" departLane="E13_0" departPos="5.10" departSpeed="0.00" departDelay="1.00" arrival="192.00" arrivalLane="E16_0" arrivalPos="89.60" arrivalSpeed="20.90" duration="77.00" routeLength="998.40" waitingTime="13.00" waitingCount="1" stopTime="0.00" timeLoss="44.94" rerouteNo="0" devices="tripinfo_228" vType="DEFAULT_VEHTYPE" speedFactor="1.09" vaporized=""/>
    <tripinfo id="281" depart="141.00" departLane="-E6_0" departPos="5.10" departSpeed="0.00" departDelay="0.50" arrival="192.00" arrivalLane="-E7_0" arrivalPos="89.60" arrivalSpeed="23.22" duration="51.00" routeLength="197.32" waitingTime="28.00" waitingCount="1" stopTime="0.00" timeLoss="43.38" rerouteNo="0" devices="tripinfo_281" vType="DEFAULT_VEHTYPE" speedFactor="1.08" vaporized=""/>
    <tripinfo id="53" depart="27.00" departLane="-E16_0" departPos="5.10" departSpeed="0.00" departDelay="0.50" arrival="193.00" arrivalLane="E11_0" arrivalPos="89.60" arrivalSpeed="19.36" duration="166.00" routeLength="1497.14" waitingTime="68.00" waitingCount="3" stopTime="0.00" timeLoss="119.17" rerouteNo="0" devices="tripinfo_53" vType="DEFAULT_VEHTYPE" speedFactor="1.10" vaporized=""/>
    <tripinfo id="64" depart="32.00" departLane="E3_0" departPos="5.10" departSpeed="0.00" departDelay="0.00" arrival="193.00" arrivalLane="E22_1" arrivalPos="89.60" arrivalSpeed="19.48" duration="161.00" routeLength="188.29" waitingTime="135.00" waitingCount="2" stopTime="0.00" timeLoss="152.48" rerouteNo="0" devices="tripinfo_64" vType="DEFAULT_VEHTYPE" speedFactor="0.94" vaporized=""/>
    <tripinfo id="272" depart="136.00" departLane="-E21_0" departPos="5.10" departSpeed="0.00" departDelay="0.00" arrival="194.00" arrivalLane="E20_1" arrivalPos="89.60" arrivalSpeed="30.78" duration="58.00" routeLength="1288.08" waitingTime="0.00" waitingCount="0" stopTime="0.00" timeLoss="15.48" rerouteNo="0" devices="tripinfo_272" vType="DEFAULT_VEHTYPE" speedFactor="1.05" vaporized=""/>
    <tripinfo id="94" depart="47.00" departLane="-E16_0" departPos="5.10" departSpeed="0.00" departDelay="0.00" arrival="195.00" arrivalLane="E11_0" arrivalPos="89.60" arrivalSpeed="21.49" duration="148.00" routeLength="1497.14" waitingTime="52.00" waitingCount="2" stopTime="0.00" timeLoss="101.07" rerouteNo="0" devices="tripinfo_94" vType="DEFAULT_VEHTYPE" speedFactor="1.09" vaporized=""/>
    <tripinfo id="23" depart="12.00" departLane="-E16_0" departPos="5.10" departSpeed="0.00" departDelay="0.50" arrival="196.00" arrivalLane="-E3_0" arrivalPos="89.60" arrivalSpeed="20.24" duration="184.00" routeLength="2195.97" waitingTime="62.00" waitingCount="1" stopTime="0.00" timeLoss="99.87" rerouteNo="0" devices="tripinfo_23" vType="DEFAULT_VEHTYPE" speedFactor="0.89" vaporized=""/>
    <tripinfo id="191" depart="100.00" departLane="-E21_0" departPos="5.10" departSpeed="0.00" departDelay="4.50" arrival="197.00" arrivalLane="E11_0" arrivalPos="89.60" arrivalSpeed="21.42" duration="97.00" routeLength="1297.32" waitingTime="18.00" waitingCount="1" stopTime="0.00" timeLoss="48.57" rerouteNo="0" devices="tripinfo_191" vType="DEFAULT_VEHTYPE" speedFactor="0.93" vaporized=""/>
    <tripinfo id="330" depart="165.00" departLane="-E6_0" departPos="5.10" departSpeed="0.00" departDelay="0.00" arrival="201.00" arrivalLane="-E7_0" arrivalPos="89.60" arrivalSpeed="20.61" duration="36.00" routeLength="197.32" waitingTime="10.00" waitingCount="1" stopTime="0.00" timeLoss="26.82" rerouteNo="0" devices="tripinfo_330" vType="DEFAULT_VEHTYPE" speedFactor="0.96" vaporized=""/>
    <tripinfo id="297" depart="150.00" departLane="-E21_0" departPos="5.10" departSpeed="0.00" departDelay="1.50" arrival="202.00" arrivalLane="E22_0" arrivalPos="89.60" arrivalSpeed="20.22" duration="52.00" routeLength="599.74" waitingTime="1.00" waitingCount="1" stopTime="0.00" timeLoss="28.20" rerouteNo="0" devices="tripinfo_297" vType="DEFAULT_VEHTYPE" speedFactor="0.98" vaporized=""/>