<?xml version="1.0" encoding="UTF-8"?>

<!-- generated on 2023-12-11 11:01:43 by Eclipse SUMO GUI Version 1.18.0
<configuration xmlns:xsi="http://www.w3.org/2001/XMLSchema-instance" xsi:noNamespaceSchemaLocation="http://sumo.dlr.de/xsd/sumoConfiguration.xsd">

    <input>
        <net-file value="../road_network.net.xml"/>
        <route-files value="../road_network_map.rou.xml"/>
        <additional-files value="../road_network_additional.add.xml"/>
    </input>

    <output>
        <tripinfo-output value="tripinfo.xml"/>
    </output>

    <traci_server>
        <remote-port value="51328"/>
    </traci_server>

</configuration>
-->

<tripinfos xmlns:xsi="http://www.w3.org/2001/XMLSchema-instance" xsi:noNamespaceSchemaLocation="http://sumo.dlr.de/xsd/tripinfo_file.xsd">
    <tripinfo id="2" depart="2.00" departLane="E15_0" departPos="5.10" departSpeed="0.00" departDelay="0.00" arrival="37.00" arrivalLane="E18_1" arrivalPos="283.20" arrivalSpeed="30.04" duration="35.00" routeLength="576.65" waitingTime="0.00" waitingCount="0" stopTime="0.00" timeLoss="13.33" rerouteNo="0" devices="tripinfo_2" vType="DEFAULT_VEHTYPE" speedFactor="1.01" vaporized=""/>
    <tripinfo id="7" depart="7.00" departLane="E12_0" departPos="5.10" departSpeed="0.00" departDelay="0.00" arrival="42.00" arrivalLane="E12_0" arrivalPos="679.20" arrivalSpeed="13.54" duration="35.00" routeLength="674.10" waitingTime="0.00" waitingCount="0" stopTime="0.00" timeLoss="9.25" rerouteNo="0" devices="tripinfo_7" vType="DEFAULT_VEHTYPE" speedFactor="0.89" vaporized=""/>
    <tripinfo id="13" depart="13.00" departLane="-E12_0" departPos="5.10" departSpeed="0.00" departDelay="0.00" arrival="43.00" arrivalLane="-E12_0" arrivalPos="679.20" arrivalSpeed="32.41" duration="30.00" routeLength="674.10" waitingTime="0.00" waitingCount="0" stopTime="0.00" timeLoss="9.27" rerouteNo="0" devices="tripinfo_13" vType="DEFAULT_VEHTYPE" speedFactor="1.12" vaporized=""/>
    <tripinfo id="15" depart="15.00" departLane="E2_0" departPos="5.10" departSpeed="0.00" departDelay="0.00" arrival="47.00" arrivalLane="E2_1" arrivalPos="679.20" arrivalSpeed="27.01" duration="32.00" routeLength="674.10" waitingTime="0.00" waitingCount="0" stopTime="0.00" timeLoss="7.06" rerouteNo="0" devices="tripinfo_15" vType="DEFAULT_VEHTYPE" speedFactor="0.93" vaporized=""/>
    <tripinfo id="6" depart="6.00" departLane="-E10_0" departPos="5.10" departSpeed="0.00" departDelay="0.00" arrival="53.00" arrivalLane="-E17_0" arrivalPos="585.17" arrivalSpeed="30.09" duration="47.00" routeLength="970.92" waitingTime="0.00" waitingCount="0" stopTime="0.00" timeLoss="14.45" rerouteNo="0" devices="tripinfo_6" vType="DEFAULT_VEHTYPE" speedFactor="1.05" vaporized=""/>
    <tripinfo id="4" depart="4.00" departLane="-E4_0" departPos="5.10" departSpeed="0.00" departDelay="0.00" arrival="94.00" arrivalLane="-E0_1" arrivalPos="89.60" arrivalSpeed="28.34" duration="90.00" routeLength="1783.05" waitingTime="0.00" waitingCount="0" stopTime="0.00" timeLoss="30.34" rerouteNo="0" devices="tripinfo_4" vType="DEFAULT_VEHTYPE" speedFactor="1.03" vaporized=""/>
    <tripinfo id="79" depart="84.00" departLane="-E18_0" departPos="5.10" departSpeed="0.00" departDelay="5.00" arrival="102.00" arrivalLane="-E18_1" arrivalPos="283.20" arrivalSpeed="17.39" duration="18.00" routeLength="278.10" waitingTime="0.00" waitingCount="0" stopTime="0.00" timeLoss="9.18" rerouteNo="0" devices="tripinfo_79" vType="DEFAULT_VEHTYPE" speedFactor="1.09" vaporized=""/>
    <tripinfo id="46" depart="46.00" departLane="E19_0" departPos="5.10" departSpeed="0.00" departDelay="0.00" arrival="107.00" arrivalLane="-E8_0" arrivalPos="679.20" arrivalSpeed="29.82" duration="61.00" routeLength="1578.10" waitingTime="0.00" waitingCount="0" stopTime="0.00" timeLoss="8.10" rerouteNo="0" devices="tripinfo_46" vType="DEFAULT_VEHTYPE" speedFactor="1.00" vaporized=""/>
    <tripinfo id="19" depart="21.00" departLane="E3_0" departPos="5.10" departSpeed="0.00" departDelay="2.00" arrival="114.00" arrivalLane="E14_0" arrivalPos="478.05" arrivalSpeed="5.70" duration="93.00" routeLength="1870.13" waitingTime="0.00" waitingCount="0" stopTime="0.00" timeLoss="37.32" rerouteNo="0" devices="tripinfo_19" vType="DEFAULT_VEHTYPE" speedFactor="1.16" vaporized=""/>
    <tripinfo id="14" depart="14.00" departLane="E3_0" departPos="5.10" departSpeed="0.00" departDelay="0.00" arrival="117.00" arrivalLane="E15_0" arrivalPos="279.20" arrivalSpeed="25.49" duration="103.00" routeLength="2080.94" waitingTime="5.00" waitingCount="1" stopTime="0.00" timeLoss="32.26" rerouteNo="0" devices="tripinfo_14" vType="DEFAULT_VEHTYPE" speedFactor="0.99" vaporized=""/>
    <tripinfo id="31" depart="31.00" departLane="E0_0" departPos="5.10" departSpeed="0.00" departDelay="0.00" arrival="122.00" arrivalLane="E18_1" arrivalPos="283.20" arrivalSpeed="33.47" duration="91.00" routeLength="1163.31" waitingTime="16.00" waitingCount="3" stopTime="0.00" timeLoss="55.03" rerouteNo="0" devices="tripinfo_31" vType="DEFAULT_VEHTYPE" speedFactor="1.15" vaporized=""/>
    <tripinfo id="43" depart="44.00" departLane="E9_0" departPos="5.10" departSpeed="0.00" departDelay="1.00" arrival="124.00" arrivalLane="E11_0" arrivalPos="89.60" arrivalSpeed="30.44" duration="80.00" routeLength="884.50" waitingTime="31.00" waitingCount="1" stopTime="0.00" timeLoss="50.77" rerouteNo="0" devices="tripinfo_43" vType="DEFAULT_VEHTYPE" speedFactor="1.04" vaporized=""/>
    <tripinfo id="66" depart="67.00" departLane="E4_0" departPos="5.10" departSpeed="0.00" departDelay="1.00" arrival="128.00" arrivalLane="E6_1" arrivalPos="89.60" arrivalSpeed="26.70" duration="61.00" routeLength="884.50" waitingTime="9.00" waitingCount="1" stopTime="0.00" timeLoss="27.64" rerouteNo="0" devices="tripinfo_66" vType="DEFAULT_VEHTYPE" speedFactor="0.91" vaporized=""/>
    <tripinfo id="86" depart="86.00" departLane="-E6_0" departPos="5.10" departSpeed="0.00" departDelay="0.00" arrival="131.00" arrivalLane="E21_0" arrivalPos="89.60" arrivalSpeed="20.37" duration="45.00" routeLength="583.13" waitingTime="2.00" waitingCount="1" stopTime="0.00" timeLoss="24.41" rerouteNo="0" devices="tripinfo_86" vType="DEFAULT_VEHTYPE" speedFactor="1.00" vaporized=""/>
    <tripinfo id="48" depart="48.00" departLane="E9_0" departPos="5.10" departSpeed="0.00" departDelay="0.00" arrival="132.00" arrivalLane="E11_0" arrivalPos="89.60" arrivalSpeed="25.98" duration="84.00" routeLength="884.50" waitingTime="30.00" waitingCount="2" stopTime="0.00" timeLoss="49.89" rerouteNo="0" devices="tripinfo_48" vType="DEFAULT_VEHTYPE" speedFactor="0.88" vaporized=""/>
    <tripinfo id="11" depart="11.00" departLane="-E21_0" departPos="5.10" departSpeed="0.00" departDelay="0.00" arrival="135.00" arrivalLane="-E14_1" arrivalPos="478.05" arrivalSpeed="9.72" duration="124.00" routeLength="1879.22" waitingTime="27.00" waitingCount="1" stopTime="0.00" timeLoss="61.63" rerouteNo="0" devices="tripinfo_11" vType="DEFAULT_VEHTYPE" speedFactor="1.03" vaporized=""/>
    <tripinfo id="111" depart="111.00" departLane="-E9_0" departPos="5.10" departSpeed="0.00" departDelay="0.00" arrival="137.00" arrivalLane="E20_0" arrivalPos="89.60" arrivalSpeed="25.36" duration="26.00" routeLength="483.35" waitingTime="0.00" waitingCount="0" stopTime="0.00" timeLoss="7.05" rerouteNo="0" devices="tripinfo_111" vType="DEFAULT_VEHTYPE" speedFactor="0.87" vaporized=""/>
    <tripinfo id="44" depart="45.00" departLane="-E12_0" departPos="5.10" departSpeed="0.00" departDelay="1.00" arrival="140.00" arrivalLane="-E1_0" arrivalPos="579.20" arrivalSpeed="9.40" duration="95.00" routeLength="1660.88" waitingTime="3.00" waitingCount="1" stopTime="0.00" timeLoss="39.62" rerouteNo="0" devices="tripinfo_44" vType="DEFAULT_VEHTYPE" speedFactor="1.04" vaporized=""/>
    <tripinfo id="33" depart="33.00" departLane="-E18_0" departPos="5.10" departSpeed="0.00" departDelay="0.00" arrival="141.00" arrivalLane="-E0_1" arrivalPos="89.60" arrivalSpeed="22.85" duration="108.00" routeLength="1173.62" waitingTime="23.00" waitingCount="1" stopTime="0.00" timeLoss="71.22" rerouteNo="0" devices="tripinfo_33" vType="DEFAULT_VEHTYPE" speedFactor="1.17" vaporized=""/>
    <tripinfo id="84" depart="84.00" departLane="-E17_0" departPos="5.10" departSpeed="0.00" departDelay="0.00" arrival="142.00" arrivalLane="-E13_1" arrivalPos="89.60" arrivalSpeed="25.17" duration="58.00" routeLength="1177.57" waitingTime="0.00" waitingCount="0" stopTime="0.00" timeLoss="23.04" rerouteNo="0" devices="tripinfo_84" vType="DEFAULT_VEHTYPE" speedFactor="1.15" vaporized=""/>
    <tripinfo id="30" depart="30.00" departLane="E9_0" departPos="5.10" departSpeed="0.00" departDelay="0.00" arrival="144.00" arrivalLane="E16_1" arrivalPos="89.60" arrivalSpeed="34.87" duration="114.00" routeLength="1389.78" waitingTime="47.00" waitingCount="2" stopTime="0.00" timeLoss="72.59" rerouteNo="0" devices="tripinfo_30" vType="DEFAULT_VEHTYPE" speedFactor="1.18" vaporized=""/>
    <tripinfo id="20" depart="20.00" departLane="E14_0" departPos="5.10" departSpeed="0.00" departDelay="0.00" arrival="146.00" arrivalLane="-E1_0" arrivalPos="579.20" arrivalSpeed="9.39" duration="126.00" routeLength="2077.32" waitingTime="4.00" waitingCount="2" stopTime="0.00" timeLoss="53.95" rerouteNo="0" devices="tripinfo_20" vType="DEFAULT_VEHTYPE" speedFactor="1.02" vaporized=""/>
    <tripinfo id="97" depart="97.00" departLane="-E5_0" departPos="5.10" departSpeed="0.00" departDelay="0.00" arrival="146.00" arrivalLane="E22_0" arrivalPos="89.60" arrivalSpeed="18.81" duration="49.00" routeLength="872.73" waitingTime="0.00" waitingCount="0" stopTime="0.00" timeLoss="16.05" rerouteNo="0" devices="tripinfo_97" vType="DEFAULT_VEHTYPE" speedFactor="0.91" vaporized=""/>
    <tripinfo id="130" depart="130.00" departLane="E4_0" departPos="5.10" departSpeed="0.00" departDelay="0.00" arrival="150.00" arrivalLane="E4_0" arrivalPos="379.20" arrivalSpeed="29.85" duration="20.00" routeLength="374.10" waitingTime="0.00" waitingCount="0" stopTime="0.00" timeLoss="7.65" rerouteNo="0" devices="tripinfo_130" vType="DEFAULT_VEHTYPE" speedFactor="1.03" vaporized=""/>
    <tripinfo id="127" depart="131.00" departLane="E9_0" departPos="5.10" departSpeed="0.00" departDelay="4.00" arrival="153.00" arrivalLane="E9_0" arrivalPos="378.05" arrivalSpeed="23.40" duration="22.00" routeLength="372.95" waitingTime="0.00" waitingCount="0" stopTime="0.00" timeLoss="6.28" rerouteNo="0" devices="tripinfo_127" vType="DEFAULT_VEHTYPE" speedFactor="0.82" vaporized=""/>
    <tripinfo id="95" depart="95.00" departLane="-E4_0" departPos="5.10" departSpeed="0.00" departDelay="0.00" arrival="154.00" arrivalLane="-E2_0" arrivalPos="679.20" arrivalSpeed="17.93" duration="59.00" routeLength="1072.65" waitingTime="0.00" waitingCount="0" stopTime="0.00" timeLoss="22.82" rerouteNo="0" devices="tripinfo_95" vType="DEFAULT_VEHTYPE" speedFactor="1.06" vaporized=""/>
    <tripinfo id="17" depart="17.00" departLane="-E22_0" departPos="5.10" departSpeed="0.00" departDelay="0.00" arrival="163.00" arrivalLane="E12_1" arrivalPos="679.20" arrivalSpeed="18.08" duration="146.00" routeLength="1881.60" waitingTime="37.00" waitingCount="2" stopTime="0.00" timeLoss="75.37" rerouteNo="0" devices="tripinfo_17" vType="DEFAULT_VEHTYPE" speedFactor="0.94" vaporized=""/>
    <tripinfo id="51" depart="51.00" departLane="E13_0" departPos="5.10" departSpeed="0.00" departDelay="0.00" arrival="164.00" arrivalLane="E11_1" arrivalPos="89.60" arrivalSpeed="20.58" duration="113.00" routeLength="792.00" waitingTime="58.00" waitingCount="3" stopTime="0.00" timeLoss="87.85" rerouteNo="0" devices="tripinfo_51" vType="DEFAULT_VEHTYPE" speedFactor="1.17" vaporized=""/>
    <tripinfo id="58" depart="58.00" departLane="-E20_0" departPos="5.10" departSpeed="0.00" departDelay="0.00" arrival="166.00" arrivalLane="E16_1" arrivalPos="89.60" arrivalSpeed="21.22" duration="108.00" routeLength="1386.94" waitingTime="30.00" waitingCount="1" stopTime="0.00" timeLoss="58.82" rerouteNo="0" devices="tripinfo_58" vType="DEFAULT_VEHTYPE" speedFactor="1.02" vaporized=""/>
    <tripinfo id="39" depart="39.00" departLane="-E2_0" departPos="5.10" departSpeed="0.00" departDelay="0.00" arrival="168.00" arrivalLane="-E19_1" arrivalPos="883.20" arrivalSpeed="22.76" duration="129.00" routeLength="2364.88" waitingTime="3.00" waitingCount="1" stopTime="0.00" timeLoss="38.45" rerouteNo="0" devices="tripinfo_39" vType="DEFAULT_VEHTYPE" speedFactor="0.90" vaporized=""/>
    <tripinfo id="65" depart="65.00" departLane="-E20_0" departPos="5.10" departSpeed="0.00" departDelay="0.00" arrival="169.00" arrivalLane="-E1_1" arrivalPos="579.20" arrivalSpeed="25.25" duration="104.00" routeLength="1483.05" waitingTime="23.00" waitingCount="1" stopTime="0.00" timeLoss="45.16" rerouteNo="0" devices="tripinfo_65" vType="DEFAULT_VEHTYPE" speedFactor="0.88" vaporized=""/>
    <tripinfo id="99" depart="99.00" departLane="E9_0" departPos="5.10" departSpeed="0.00" departDelay="0.00" arrival="169.00" arrivalLane="E22_1" arrivalPos="89.60" arrivalSpeed="32.14" duration="70.00" routeLength="1572.73" waitingTime="0.00" waitingCount="0" stopTime="0.00" timeLoss="20.45" rerouteNo="0" devices="tripinfo_99" vType="DEFAULT_VEHTYPE" speedFactor="1.10" vaporized=""/>
    <tripinfo id="49" depart="49.00" departLane="E8_0" departPos="5.10" departSpeed="0.00" departDelay="0.00" arrival="170.00" arrivalLane="E22_0" arrivalPos="89.60" arrivalSpeed="25.12" duration="121.00" routeLength="2260.96" waitingTime="0.00" waitingCount="0" stopTime="0.00" timeLoss="29.58" rerouteNo="0" devices="tripinfo_49" vType="DEFAULT_VEHTYPE" speedFactor="0.85" vaporized=""/>
    <tripinfo id="76" depart="76.00" departLane="-E5_0" departPos="5.10" departSpeed="0.00" departDelay="0.00" arrival="177.00" arrivalLane="E11_0" arrivalPos="89.60" arrivalSpeed="20.00" duration="101.00" routeLength="1571.28" waitingTime="4.00" waitingCount="1" stopTime="0.00" timeLoss="46.78" rerouteNo="0" devices="tripinfo_76" vType="DEFAULT_VEHTYPE" speedFactor="1.03" vaporized=""/>
    <tripinfo id="12" depart="12.00" departLane="E8_0" departPos="5.10" departSpeed="0.00" departDelay="0.00" arrival="178.00" arrivalLane="-E4_0" arrivalPos="379.20" arrivalSpeed="14.32" duration="166.00" routeLength="2148.91" waitingTime="44.00" waitingCount="4" stopTime="0.00" timeLoss="94.16" rerouteNo="0" devices="tripinfo_12" vType="DEFAULT_VEHTYPE" speedFactor="1.05" vaporized=""/>
    <tripinfo id="32" depart="32.00" departLane="E3_0" departPos="5.10" departSpeed="0.00" departDelay="0.00" arrival="178.00" arrivalLane="E20_1" arrivalPos="89.60" arrivalSpeed="19.62" duration="146.00" routeLength="1681.68" waitingTime="56.00" waitingCount="1" stopTime="0.00" timeLoss="87.15" rerouteNo="0" devices="tripinfo_32" vType="DEFAULT_VEHTYPE" speedFactor="1.01" vaporized=""/>
    <tripinfo id="0" depart="0.00" departLane="E12_0" departPos="5.10" departSpeed="0.00" departDelay="0.00" arrival="180.00" arrivalLane="-E0_1" arrivalPos="89.60" arrivalSpeed="31.32" duration="180.00" routeLength="2481.60" waitingTime="51.00" waitingCount="5" stopTime="0.00" timeLoss="99.44" rerouteNo="0" devices="tripinfo_0" vType="DEFAULT_VEHTYPE" speedFactor="1.06" vaporized=""/>
    <tripinfo id="1" depart="1.00" departLane="-E2_0" departPos="5.10" departSpeed="0.00" departDelay="0.00" arrival="180.00" arrivalLane="-E18_0" arrivalPos="283.20" arrivalSpeed="27.63" duration="179.00" routeLength="2650.66" waitingTime="38.00" waitingCount="2" stopTime="0.00" timeLoss="82.75" rerouteNo="0" devices="tripinfo_1" vType="DEFAULT_VEHTYPE" speedFactor="0.94" vaporized=""/>
    <tripinfo id="121" depart="121.00" departLane="-E9_0" departPos="5.10" departSpeed="0.00" departDelay="0.00" arrival="181.00" arrivalLane="E6_0" arrivalPos="89.60" arrivalSpeed="19.93" duration="60.00" routeLength="1170.13" waitingTime="0.00" waitingCount="0" stopTime="0.00" timeLoss="22.14" rerouteNo="0" devices="tripinfo_121" vType="DEFAULT_VEHTYPE" speedFactor="1.10" vaporized=""/>
    <tripinfo id="135" depart="140.00" departLane="E2_0" departPos="5.10" departSpeed="0.00" departDelay="5.00" arrival="181.00" arrivalLane="-E3_1" arrivalPos="89.60" arrivalSpeed="21.72" duration="41.00" routeLength="783.05" waitingTime="0.00" waitingCount="0" stopTime="0.00" timeLoss="13.97" rerouteNo="0" devices="tripinfo_135" vType="DEFAULT_VEHTYPE" speedFactor="1.01" vaporized=""/>
    <tripinfo id="22" depart="22.00" departLane="-E11_0" departPos="5.10" departSpeed="0.00" departDelay="0.00" arrival="182.00" arrivalLane="-E18_1" arrivalPos="283.20" arrivalSpeed="28.91" duration="160.00" routeLength="2067.67" waitingTime="49.00" waitingCount="1" stopTime="0.00" timeLoss="86.92" rerouteNo="0" devices="tripinfo_22" vType="DEFAULT_VEHTYPE" speedFactor="0.97" vaporized=""/>
    <tripinfo id="29" depart="31.00" departLane="-E16_0" departPos="5.10" departSpeed="0.00" departDelay="2.00" arrival="185.00" arrivalLane="-E7_0" arrivalPos="89.60" arrivalSpeed="27.71" duration="154.00" routeLength="2088.39" waitingTime="50.00" waitingCount="1" stopTime="0.00" timeLoss="76.92" rerouteNo="0" devices="tripinfo_29" vType="DEFAULT_VEHTYPE" speedFactor="0.93" vaporized=""/>
    <tripinfo id="112" depart="112.00" departLane="-E11_0" departPos="5.10" departSpeed="0.00" departDelay="0.00" arrival="189.00" arrivalLane="E14_1" arrivalPos="478.05" arrivalSpeed="15.84" duration="77.00" routeLength="1170.13" waitingTime="1.00" waitingCount="1" stopTime="0.00" timeLoss="38.84" rerouteNo="0" devices="tripinfo_112" vType="DEFAULT_VEHTYPE" speedFactor="1.10" vaporized=""/>
    <tripinfo id="74" depart="76.00" departLane="-E17_0" departPos="5.10" departSpeed="0.00" departDelay="2.00" arrival="199.00" arrivalLane="-E3_1" arrivalPos="89.60" arrivalSpeed="19.02" duration="123.00" routeLength="2464.35" waitingTime="0.00" waitingCount="0" stopTime="0.00" timeLoss="31.80" rerouteNo="0" devices="tripinfo_74" vType="DEFAULT_VEHTYPE" speedFactor="0.96" vaporized=""/>
    <tripinfo id="93" depart="93.00" departLane="E3_0" departPos="5.10" departSpeed="0.00" departDelay="0.00" arrival="201.00" arrivalLane="-E19_1" arrivalPos="883.20" arrivalSpeed="26.89" duration="108.00" routeLength="2476.73" waitingTime="0.00" waitingCount="0" stopTime="0.00" timeLoss="17.25" rerouteNo="0" devices="tripinfo_93" vType="DEFAULT_VEHTYPE" speedFactor="0.92" vaporized=""/>
    <tripinfo id="82" depart="82.00" departLane="E3_0" departPos="5.10" departSpeed="0.00" departDelay="0.00" arrival="203.00" arrivalLane="-E10_1" arrivalPos="379.20" arrivalSpeed="4.78" duration="121.00" routeLength="1171.28" waitingTime="39.00" waitingCount="3" stopTime="0.00" timeLoss="79.79" rerouteNo="0" devices="tripinfo_82" vType="DEFAULT_VEHTYPE" speedFactor="1.02" vaporized=""/>
    <tripinfo id="25" depart="25.00" departLane="-E22_0" departPos="5.10" departSpeed="0.00" departDelay="0.00" arrival="205.00" arrivalLane="-E17_1" arrivalPos="585.17" arrivalSpeed="7.10" duration="180.00" routeLength="1778.90" waitingTime="60.00" waitingCount="4" stopTime="0.00" timeLoss="108.90" rerouteNo="0" devices="tripinfo_25" vType="DEFAULT_VEHTYPE" speedFactor="0.87" vaporized=""/>
    <tripinfo id="147" depart="147.00" departLane="E17_0" departPos="5.10" departSpeed="0.00" departDelay="0.00" arrival="205.00" arrivalLane="E12_1" arrivalPos="679.20" arrivalSpeed="30.01" duration="58.00" routeLength="1280.66" waitingTime="0.00" waitingCount="0" stopTime="0.00" timeLoss="15.11" rerouteNo="0" devices="tripinfo_147" vType="DEFAULT_VEHTYPE" speedFactor="1.00" vaporized=""/>
    <tripinfo id="75" depart="75.00" departLane="E9_0" departPos="5.10" departSpeed="0.00" departDelay="0.00" arrival="209.00" arrivalLane="E16_0" arrivalPos="89.60" arrivalSpeed="20.75" duration="134.00" routeLength="1389.78" waitingTime="47.00" waitingCount="2" stopTime="0.00" timeLoss="85.24" rerouteNo="0" devices="tripinfo_75" vType="DEFAULT_VEHTYPE" speedFactor="0.98" vaporized=""/>
    <tripinfo id="134" depart="134.00" departLane="E13_0" departPos="5.10" departSpeed="0.00" departDelay="0.00" arrival="209.00" arrivalLane="-E0_0" arrivalPos="89.60" arrivalSpeed="17.79" duration="75.00" routeLength="183.13" waitingTime="54.00" waitingCount="1" stopTime="0.00" timeLoss="69.35" rerouteNo="0" devices="tripinfo_134" vType="DEFAULT_VEHTYPE" speedFactor="1.23" vaporized=""/>
    <tripinfo id="26" depart="27.00" departLane="-E2_0" departPos="5.10" departSpeed="0.00" departDelay="1.00" arrival="210.00" arrivalLane="E6_0" arrivalPos="89.60" arrivalSpeed="20.30" duration="183.00" routeLength="2269.83" waitingTime="53.00" waitingCount="3" stopTime="0.00" timeLoss="96.39" rerouteNo="0" devices="tripinfo_26" vType="DEFAULT_VEHTYPE" speedFactor="0.92" vaporized=""/>
    <tripinfo id="52" depart="54.00" departLane="-E2_0" departPos="5.10" departSpeed="0.00" departDelay="2.00" arrival="210.00" arrivalLane="E16_0" arrivalPos="89.60" arrivalSpeed="22.10" duration="156.00" routeLength="2080.46" waitingTime="48.00" waitingCount="1" stopTime="0.00" timeLoss="84.45" rerouteNo="0" devices="tripinfo_52" vType="DEFAULT_VEHTYPE" speedFactor="1.02" vaporized=""/>
    <tripinfo id="68" depart="70.00" departLane="-E11_0" departPos="5.10" departSpeed="0.00" departDelay="2.00" arrival="210.00" arrivalLane="E20_0" arrivalPos="89.60" arrivalSpeed="22.14" duration="140.00" routeLength="994.90" waitingTime="68.00" waitingCount="2" stopTime="0.00" timeLoss="107.42" rerouteNo="0" devices="tripinfo_68" vType="DEFAULT_VEHTYPE" speedFactor="1.04" vaporized=""/>
    <tripinfo id="94" depart="94.00" departLane="-E16_0" departPos="5.10" departSpeed="0.00" departDelay="0.00" arrival="210.00" arrivalLane="-E9_1" arrivalPos="378.05" arrivalSpeed="4.07" duration="116.00" routeLength="1379.22" waitingTime="41.00" waitingCount="3" stopTime="0.00" timeLoss="73.13" rerouteNo="0" devices="tripinfo_94" vType="DEFAULT_VEHTYPE" speedFactor="1.09" vaporized=""/>
    <tripinfo id="102" depart="102.00" departLane="-E6_0" departPos="5.10" departSpeed="0.00" departDelay="0.00" arrival="210.00" arrivalLane="-E17_1" arrivalPos="585.17" arrivalSpeed="10.66" duration="108.00" routeLength="1790.67" waitingTime="7.00" waitingCount="1" stopTime="0.00" timeLoss="44.35" rerouteNo="0" devices="tripinfo_102" vType="DEFAULT_VEHTYPE" speedFactor="0.97" vaporized=""/>
    <tripinfo id="107" depart="107.00" departLane="E8_0" departPos="5.10" departSpeed="0.00" departDelay="0.00" arrival="210.00" arrivalLane="E9_0" arrivalPos="378.05" arrivalSpeed="8.33" duration="103.00" routeLength="1061.18" waitingTime="34.00" waitingCount="2" stopTime="0.00" timeLoss="68.00" rerouteNo="0" devices="tripinfo_107" vType="DEFAULT_VEHTYPE" speedFactor="1.03" vaporized=""/>
    <tripinfo id="5" depart="5.00" departLane="-E18_0" departPos="5.10" departSpeed="0.00" departDelay="0.00" arrival="211.00" arrivalLane="E11_1" arrivalPos="89.60" arrivalSpeed="22.74" duration="206.00" routeLength="1684.33" waitingTime="87.00" waitingCount="4" stopTime="0.00" timeLoss="134.91" rerouteNo="0" devices="tripinfo_5" vType="DEFAULT_VEHTYPE" speedFactor="0.83" vaporized=""/>
    <tripinfo id="163" depart="163.00" departLane="-E21_0" departPos="5.10" departSpeed="0.00" departDelay="0.00" arrival="211.00" arrivalLane="E6_1" arrivalPos="89.60" arrivalSpeed="21.30" duration="48.00" routeLength="593.45" waitingTime="5.00" waitingCount="1" stopTime="0.00" timeLoss="29.50" rerouteNo="0" devices="tripinfo_163" vType="DEFAULT_VEHTYPE" speedFactor="1.13" vaporized=""/>
    <tripinfo id="172" depart="172.00" departLane="-E21_0" departPos="5.10" departSpeed="0.00" departDelay="0.00" arrival="215.00" arrivalLane="E22_0" arrivalPos="89.60" arrivalSpeed="17.85" duration="43.00" routeLength="571.36" waitingTime="0.00" waitingCount="0" stopTime="0.00" timeLoss="20.07" rerouteNo="0" devices="tripinfo_172" vType="DEFAULT_VEHTYPE" speedFactor="0.89" vaporized=""/>
    <tripinfo id="103" depart="103.00" departLane="-E22_0" departPos="5.10" departSpeed="0.00" departDelay="0.00" arrival="216.00" arrivalLane="-E1_0" arrivalPos="579.20" arrivalSpeed="13.65" duration="113.00" routeLength="1384.50" waitingTime="33.00" waitingCount="1" stopTime="0.00" timeLoss="64.15" rerouteNo="0" devices="tripinfo_103" vType="DEFAULT_VEHTYPE" speedFactor="0.95" vaporized=""/>
    <tripinfo id="41" depart="41.00" departLane="E0_0" departPos="5.10" departSpeed="0.00" departDelay="0.00" arrival="221.00" arrivalLane="E5_1" arrivalPos="379.20" arrivalSpeed="28.70" duration="180.00" routeLength="2172.73" waitingTime="65.00" waitingCount="2" stopTime="0.00" timeLoss="102.89" rerouteNo="0" devices="tripinfo_41" vType="DEFAULT_VEHTYPE" speedFactor="0.96" vaporized=""/>
    <tripinfo id="78" depart="78.00" departLane="-E21_0" departPos="5.10" departSpeed="0.00" departDelay="0.00" arrival="221.00" arrivalLane="E15_0" arrivalPos="279.20" arrivalSpeed="8.48" duration="143.00" routeLength="1692.71" waitingTime="52.00" waitingCount="2" stopTime="0.00" timeLoss="86.89" rerouteNo="0" devices="tripinfo_78" vType="DEFAULT_VEHTYPE" speedFactor="1.01" vaporized=""/>
    <tripinfo id="60" depart="60.00" departLane="E18_0" departPos="5.10" departSpeed="0.00" departDelay="0.00" arrival="222.00" arrivalLane="E11_1" arrivalPos="89.60" arrivalSpeed="32.18" duration="162.00" routeLength="2088.31" waitingTime="53.00" waitingCount="3" stopTime="0.00" timeLoss="95.25" rerouteNo="0" devices="tripinfo_60" vType="DEFAULT_VEHTYPE" speedFactor="1.08" vaporized=""/>
    <tripinfo id="80" depart="80.00" departLane="-E11_0" departPos="5.10" departSpeed="0.00" departDelay="0.00" arrival="224.00" arrivalLane="E16_0" arrivalPos="89.60" arrivalSpeed="24.38" duration="144.00" routeLength="1492.31" waitingTime="49.00" waitingCount="2" stopTime="0.00" timeLoss="94.28" rerouteNo="0" devices="tripinfo_80" vType="DEFAULT_VEHTYPE" speedFactor="1.03" vaporized=""/>
    <tripinfo id="61" depart="63.00" departLane="E18_0" departPos="5.10" departSpeed="0.00" departDelay="2.00" arrival="225.00" arrivalLane="E11_1" arrivalPos="89.60" arrivalSpeed="33.12" duration="162.00" routeLength="2083.15" waitingTime="50.00" waitingCount="3" stopTime="0.00" timeLoss="97.03" rerouteNo="0" devices="tripinfo_61" vType="DEFAULT_VEHTYPE" speedFactor="1.12" vaporized=""/>
    <tripinfo id="18" depart="18.00" departLane="E3_0" departPos="5.10" departSpeed="0.00" departDelay="0.00" arrival="226.00" arrivalLane="E16_0" arrivalPos="89.60" arrivalSpeed="26.01" duration="208.00" routeLength="2191.34" waitingTime="85.00" waitingCount="3" stopTime="0.00" timeLoss="128.41" rerouteNo="0" devices="tripinfo_18" vType="DEFAULT_VEHTYPE" speedFactor="0.94" vaporized=""/>
    <tripinfo id="128" depart="129.00" departLane="-E11_0" departPos="5.10" departSpeed="0.00" departDelay="1.00" arrival="228.00" arrivalLane="-E17_1" arrivalPos="585.17" arrivalSpeed="32.74" duration="99.00" routeLength="1081.32" waitingTime="42.00" waitingCount="1" stopTime="0.00" timeLoss="65.41" rerouteNo="0" devices="tripinfo_128" vType="DEFAULT_VEHTYPE" speedFactor="1.12" vaporized=""/>
    <tripinfo id="213" depart="213.00" departLane="E13_0" departPos="5.10" departSpeed="0.00" departDelay="0.00" arrival="231.00" arrivalLane="-E0_0" arrivalPos="89.60" arrivalSpeed="19.68" duration="18.00" routeLength="183.13" waitingTime="0.00" waitingCount="0" stopTime="0.00" timeLoss="10.85" rerouteNo="0" devices="tripinfo_213" vType="DEFAULT_VEHTYPE" speedFactor="1.10" vaporized=""/>
    <tripinfo id="101" depart="101.00" departLane="E3_0" departPos="5.10" departSpeed="0.00" departDelay="0.00" arrival="233.00" arrivalLane="-E14_0" arrivalPos="478.05" arrivalSpeed="22.17" duration="132.00" routeLength="2267.45" waitingTime="8.00" waitingCount="1" stopTime="0.00" timeLoss="51.16" rerouteNo="0" devices="tripinfo_101" vType="DEFAULT_VEHTYPE" speedFactor="0.96" vaporized=""/>
    <tripinfo id="113" depart="113.00" departLane="-E8_0" departPos="5.10" departSpeed="0.00" departDelay="0.00" arrival="233.00" arrivalLane="E22_0" arrivalPos="89.60" arrivalSpeed="19.36" duration="120.00" routeLength="1571.28" waitingTime="22.00" waitingCount="2" stopTime="0.00" timeLoss="64.51" rerouteNo="0" devices="tripinfo_113" vType="DEFAULT_VEHTYPE" speedFactor="1.01" vaporized=""/>
    <tripinfo id="137" depart="137.00" departLane="-E15_0" departPos="5.10" departSpeed="0.00" departDelay="0.00" arrival="236.00" arrivalLane="-E13_1" arrivalPos="89.60" arrivalSpeed="29.88" duration="99.00" routeLength="882.84" waitingTime="47.00" waitingCount="2" stopTime="0.00" timeLoss="68.76" rerouteNo="0" devices="tripinfo_137" vType="DEFAULT_VEHTYPE" speedFactor="1.02" vaporized=""/>
    <tripinfo id="131" depart="131.00" departLane="-E21_0" departPos="5.10" departSpeed="0.00" departDelay="0.00" arrival="238.00" arrivalLane="-E14_1" arrivalPos="478.05" arrivalSpeed="19.92" duration="107.00" routeLength="1879.22" waitingTime="7.00" waitingCount="2" stopTime="0.00" timeLoss="46.70" rerouteNo="0" devices="tripinfo_131" vType="DEFAULT_VEHTYPE" speedFactor="1.07" vaporized=""/>
    <tripinfo id="117" depart="117.00" departLane="-E18_0" departPos="5.10" departSpeed="0.00" departDelay="0.00" arrival="239.00" arrivalLane="-E13_1" arrivalPos="89.60" arrivalSpeed="30.03" duration="122.00" routeLength="1175.07" waitingTime="37.00" waitingCount="3" stopTime="0.00" timeLoss="80.08" rerouteNo="0" devices="tripinfo_117" vType="DEFAULT_VEHTYPE" speedFactor="1.00" vaporized=""/>
    <tripinfo id="152" depart="169.00" departLane="-E15_0" departPos="5.10" departSpeed="0.00" departDelay="17.00" arrival="240.00" arrivalLane="-E13_1" arrivalPos="89.60" arrivalSpeed="30.95" duration="71.00" routeLength="882.84" waitingTime="12.00" waitingCount="1" stopTime="0.00" timeLoss="42.11" rerouteNo="0" devices="tripinfo_152" vType="DEFAULT_VEHTYPE" speedFactor="1.07" vaporized=""/>