<?xml version="1.0" encoding="UTF-8"?>

<!-- generated on 2024-01-02 12:35:38 by Eclipse SUMO sumo Version 1.18.0
<configuration xmlns:xsi="http://www.w3.org/2001/XMLSchema-instance" xsi:noNamespaceSchemaLocation="http://sumo.dlr.de/xsd/sumoConfiguration.xsd">

    <input>
        <net-file value="../config_5/road_network.net.xml"/>
        <route-files value="../config_5/road_network_map.rou.xml"/>
        <additional-files value="../config_5/road_network_additional.add.xml"/>
    </input>

    <output>
        <tripinfo-output value="../sumo/tripinfo.xml"/>
    </output>

    <traci_server>
        <remote-port value="57123"/>
    </traci_server>

</configuration>
-->

<tripinfos xmlns:xsi="http://www.w3.org/2001/XMLSchema-instance" xsi:noNamespaceSchemaLocation="http://sumo.dlr.de/xsd/tripinfo_file.xsd">
</tripinfos>
