<?xml version="1.0" encoding="UTF-8"?>

<!-- generated on 2023-12-27 17:26:46 by Eclipse SUMO sumo Version 1.18.0
<configuration xmlns:xsi="http://www.w3.org/2001/XMLSchema-instance" xsi:noNamespaceSchemaLocation="http://sumo.dlr.de/xsd/sumoConfiguration.xsd">

    <input>
        <net-file value="../sumo/road_network.net.xml"/>
        <route-files value="../sumo/road_network_map.rou.xml"/>
        <additional-files value="../sumo/road_network_additional.add.xml"/>
    </input>

    <output>
        <tripinfo-output value="../sumo/tripinfo.xml"/>
    </output>

    <traci_server>
        <remote-port value="48155"/>
    </traci_server>

</configuration>
-->

<tripinfos xmlns:xsi="http://www.w3.org/2001/XMLSchema-instance" xsi:noNamespaceSchemaLocation="http://sumo.dlr.de/xsd/tripinfo_file.xsd">
    <tripinfo id="20" depart="4.00" departLane="E13_0" departPos="5.10" departSpeed="0.00" departDelay="0.00" arrival="23.00" arrivalLane="-E0_0" arrivalPos="89.60" arrivalSpeed="18.60" duration="19.00" routeLength="183.13" waitingTime="0.00" waitingCount="0" stopTime="0.00" timeLoss="12.16" rerouteNo="0" devices="tripinfo_20" vType="DEFAULT_VEHTYPE" speedFactor="1.02" vaporized=""/>
    <tripinfo id="15" depart="13.00" departLane="E3_0" departPos="5.10" departSpeed="0.00" departDelay="10.00" arrival="50.00" arrivalLane="E21_1" arrivalPos="89.60" arrivalSpeed="19.68" duration="37.00" routeLength="593.45" waitingTime="0.00" waitingCount="0" stopTime="0.00" timeLoss="13.92" rerouteNo="0" devices="tripinfo_15" vType="DEFAULT_VEHTYPE" speedFactor="0.93" vaporized=""/>
    <tripinfo id="73" depart="18.00" departLane="-E6_0" departPos="5.10" departSpeed="0.00" departDelay="3.40" arrival="52.00" arrivalLane="E21_0" arrivalPos="89.60" arrivalSpeed="18.80" duration="34.00" routeLength="583.13" waitingTime="0.00" waitingCount="0" stopTime="0.00" timeLoss="13.47" rerouteNo="0" devices="tripinfo_73" vType="DEFAULT_VEHTYPE" speedFactor="1.06" vaporized=""/>
    <tripinfo id="6" depart="2.00" departLane="-E11_0" departPos="5.10" departSpeed="0.00" departDelay="0.80" arrival="59.00" arrivalLane="-E13_0" arrivalPos="89.60" arrivalSpeed="20.30" duration="57.00" routeLength="771.36" waitingTime="8.00" waitingCount="1" stopTime="0.00" timeLoss="29.89" rerouteNo="0" devices="tripinfo_6" vType="DEFAULT_VEHTYPE" speedFactor="1.05" vaporized=""/>
    <tripinfo id="13" depart="5.00" departLane="-E11_0" departPos="5.10" departSpeed="0.00" departDelay="2.40" arrival="60.00" arrivalLane="-E0_1" arrivalPos="89.60" arrivalSpeed="22.22" duration="55.00" routeLength="783.13" waitingTime="5.00" waitingCount="1" stopTime="0.00" timeLoss="29.70" rerouteNo="0" devices="tripinfo_13" vType="DEFAULT_VEHTYPE" speedFactor="1.12" vaporized=""/>
    <tripinfo id="72" depart="16.00" departLane="-E22_0" departPos="5.10" departSpeed="0.00" departDelay="1.60" arrival="60.00" arrivalLane="-E3_0" arrivalPos="89.60" arrivalSpeed="20.28" duration="44.00" routeLength="183.13" waitingTime="21.00" waitingCount="1" stopTime="0.00" timeLoss="36.12" rerouteNo="0" devices="tripinfo_72" vType="DEFAULT_VEHTYPE" speedFactor="0.94" vaporized=""/>
    <tripinfo id="44" depart="10.00" departLane="-E11_0" departPos="5.10" departSpeed="0.00" departDelay="1.20" arrival="61.00" arrivalLane="-E0_1" arrivalPos="89.60" arrivalSpeed="21.41" duration="51.00" routeLength="783.13" waitingTime="0.00" waitingCount="0" stopTime="0.00" timeLoss="25.16" rerouteNo="0" devices="tripinfo_44" vType="DEFAULT_VEHTYPE" speedFactor="1.04" vaporized=""/>
    <tripinfo id="46" depart="10.00" departLane="E13_0" departPos="5.10" departSpeed="0.00" departDelay="0.80" arrival="63.00" arrivalLane="E11_1" arrivalPos="89.60" arrivalSpeed="19.47" duration="53.00" routeLength="792.00" waitingTime="0.00" waitingCount="0" stopTime="0.00" timeLoss="23.50" rerouteNo="0" devices="tripinfo_46" vType="DEFAULT_VEHTYPE" speedFactor="1.00" vaporized=""/>
    <tripinfo id="95" depart="26.00" departLane="-E22_0" departPos="5.10" departSpeed="0.00" departDelay="7.00" arrival="64.00" arrivalLane="-E3_0" arrivalPos="89.60" arrivalSpeed="18.59" duration="38.00" routeLength="183.13" waitingTime="15.00" waitingCount="1" stopTime="0.00" timeLoss="31.36" rerouteNo="0" devices="tripinfo_95" vType="DEFAULT_VEHTYPE" speedFactor="1.06" vaporized=""/>
    <tripinfo id="59" depart="18.00" departLane="E0_0" departPos="5.10" departSpeed="0.00" departDelay="6.20" arrival="65.00" arrivalLane="-E13_1" arrivalPos="89.60" arrivalSpeed="20.05" duration="47.00" routeLength="193.45" waitingTime="22.00" waitingCount="1" stopTime="0.00" timeLoss="38.57" rerouteNo="0" devices="tripinfo_59" vType="DEFAULT_VEHTYPE" speedFactor="0.97" vaporized=""/>
    <tripinfo id="22" depart="8.00" departLane="-E11_0" departPos="5.10" departSpeed="0.00" departDelay="3.60" arrival="67.00" arrivalLane="-E3_1" arrivalPos="89.60" arrivalSpeed="18.64" duration="59.00" routeLength="892.00" waitingTime="2.00" waitingCount="1" stopTime="0.00" timeLoss="25.51" rerouteNo="0" devices="tripinfo_22" vType="DEFAULT_VEHTYPE" speedFactor="0.97" vaporized=""/>
    <tripinfo id="102" depart="30.00" departLane="-E22_0" departPos="5.10" departSpeed="0.00" departDelay="9.60" arrival="67.00" arrivalLane="-E3_0" arrivalPos="89.60" arrivalSpeed="19.39" duration="37.00" routeLength="183.13" waitingTime="12.00" waitingCount="1" stopTime="0.00" timeLoss="29.04" rerouteNo="0" devices="tripinfo_102" vType="DEFAULT_VEHTYPE" speedFactor="0.97" vaporized=""/>
    <tripinfo id="144" depart="43.00" departLane="-E22_0" departPos="5.10" departSpeed="0.00" departDelay="14.20" arrival="75.00" arrivalLane="-E3_0" arrivalPos="89.60" arrivalSpeed="18.90" duration="32.00" routeLength="183.13" waitingTime="4.00" waitingCount="1" stopTime="0.00" timeLoss="22.34" rerouteNo="0" devices="tripinfo_144" vType="DEFAULT_VEHTYPE" speedFactor="0.73" vaporized=""/>
    <tripinfo id="281" depart="58.00" departLane="-E6_0" departPos="5.10" departSpeed="0.00" departDelay="1.80" arrival="77.00" arrivalLane="-E7_0" arrivalPos="89.60" arrivalSpeed="19.34" duration="19.00" routeLength="183.13" waitingTime="0.00" waitingCount="0" stopTime="0.00" timeLoss="11.62" rerouteNo="0" devices="tripinfo_281" vType="DEFAULT_VEHTYPE" speedFactor="1.08" vaporized=""/>
    <tripinfo id="28" depart="8.00" departLane="-E16_0" departPos="5.10" departSpeed="0.00" departDelay="2.40" arrival="79.00" arrivalLane="E21_1" arrivalPos="89.60" arrivalSpeed="33.84" duration="71.00" routeLength="1803.11" waitingTime="0.00" waitingCount="0" stopTime="0.00" timeLoss="17.83" rerouteNo="0" devices="tripinfo_28" vType="DEFAULT_VEHTYPE" speedFactor="1.13" vaporized=""/>
    <tripinfo id="50" depart="16.00" departLane="-E11_0" departPos="5.10" departSpeed="0.00" departDelay="6.00" arrival="80.00" arrivalLane="E21_0" arrivalPos="89.60" arrivalSpeed="24.84" duration="64.00" routeLength="1293.45" waitingTime="0.00" waitingCount="0" stopTime="0.00" timeLoss="11.37" rerouteNo="0" devices="tripinfo_50" vType="DEFAULT_VEHTYPE" speedFactor="0.85" vaporized=""/>
    <tripinfo id="9" depart="4.00" departLane="E3_0" departPos="5.10" departSpeed="0.00" departDelay="2.20" arrival="81.00" arrivalLane="-E0_0" arrivalPos="89.60" arrivalSpeed="25.16" duration="77.00" routeLength="1483.13" waitingTime="0.00" waitingCount="0" stopTime="0.00" timeLoss="18.30" rerouteNo="0" devices="tripinfo_9" vType="DEFAULT_VEHTYPE" speedFactor="0.86" vaporized=""/>
    <tripinfo id="192" depart="53.00" departLane="-E22_0" departPos="5.10" departSpeed="0.00" departDelay="14.60" arrival="81.00" arrivalLane="-E3_0" arrivalPos="89.60" arrivalSpeed="21.06" duration="28.00" routeLength="183.13" waitingTime="0.00" waitingCount="0" stopTime="0.00" timeLoss="21.34" rerouteNo="0" devices="tripinfo_192" vType="DEFAULT_VEHTYPE" speedFactor="1.10" vaporized=""/>
    <tripinfo id="3" depart="1.00" departLane="E3_0" departPos="5.10" departSpeed="0.00" departDelay="0.40" arrival="82.00" arrivalLane="-E0_1" arrivalPos="89.60" arrivalSpeed="31.52" duration="81.00" routeLength="1483.13" waitingTime="7.00" waitingCount="1" stopTime="0.00" timeLoss="33.76" rerouteNo="0" devices="tripinfo_3" vType="DEFAULT_VEHTYPE" speedFactor="1.08" vaporized=""/>
    <tripinfo id="104" depart="24.00" departLane="-E21_0" departPos="5.10" departSpeed="0.00" departDelay="3.20" arrival="83.00" arrivalLane="E6_1" arrivalPos="89.60" arrivalSpeed="26.00" duration="59.00" routeLength="593.45" waitingTime="18.00" waitingCount="1" stopTime="0.00" timeLoss="34.75" rerouteNo="0" devices="tripinfo_104" vType="DEFAULT_VEHTYPE" speedFactor="0.89" vaporized=""/>
    <tripinfo id="200" depart="57.00" departLane="-E22_0" departPos="5.10" departSpeed="0.00" departDelay="17.00" arrival="84.00" arrivalLane="-E3_0" arrivalPos="89.60" arrivalSpeed="18.88" duration="27.00" routeLength="183.13" waitingTime="0.00" waitingCount="0" stopTime="0.00" timeLoss="19.00" rerouteNo="0" devices="tripinfo_200" vType="DEFAULT_VEHTYPE" speedFactor="0.95" vaporized=""/>
    <tripinfo id="163" depart="36.00" departLane="-E21_0" departPos="5.10" departSpeed="0.00" departDelay="3.40" arrival="85.00" arrivalLane="E6_1" arrivalPos="89.60" arrivalSpeed="32.70" duration="49.00" routeLength="593.45" waitingTime="8.00" waitingCount="1" stopTime="0.00" timeLoss="29.48" rerouteNo="0" devices="tripinfo_163" vType="DEFAULT_VEHTYPE" speedFactor="1.13" vaporized=""/>
    <tripinfo id="5" depart="4.00" departLane="-E20_0" departPos="5.10" departSpeed="0.00" departDelay="3.00" arrival="86.00" arrivalLane="E16_1" arrivalPos="89.60" arrivalSpeed="19.70" duration="82.00" routeLength="1386.94" waitingTime="0.00" waitingCount="0" stopTime="0.00" timeLoss="21.75" rerouteNo="0" devices="tripinfo_5" vType="DEFAULT_VEHTYPE" speedFactor="0.83" vaporized=""/>
    <tripinfo id="8" depart="6.00" departLane="-E20_0" departPos="5.10" departSpeed="0.00" departDelay="4.40" arrival="89.00" arrivalLane="E16_1" arrivalPos="89.60" arrivalSpeed="18.87" duration="83.00" routeLength="1386.94" waitingTime="0.00" waitingCount="0" stopTime="0.00" timeLoss="29.87" rerouteNo="0" devices="tripinfo_8" vType="DEFAULT_VEHTYPE" speedFactor="0.94" vaporized=""/>
    <tripinfo id="212" depart="66.00" departLane="-E22_0" departPos="5.10" departSpeed="0.00" departDelay="23.60" arrival="89.00" arrivalLane="-E3_0" arrivalPos="89.60" arrivalSpeed="20.22" duration="23.00" routeLength="183.13" waitingTime="0.00" waitingCount="0" stopTime="0.00" timeLoss="15.10" rerouteNo="0" devices="tripinfo_212" vType="DEFAULT_VEHTYPE" speedFactor="1.00" vaporized=""/>
    <tripinfo id="1" depart="1.00" departLane="-E20_0" departPos="5.10" departSpeed="0.00" departDelay="0.80" arrival="90.00" arrivalLane="-E3_1" arrivalPos="89.60" arrivalSpeed="19.45" duration="89.00" routeLength="1681.68" waitingTime="4.00" waitingCount="1" stopTime="0.00" timeLoss="25.39" rerouteNo="0" devices="tripinfo_1" vType="DEFAULT_VEHTYPE" speedFactor="0.94" vaporized=""/>
    <tripinfo id="226" depart="70.00" departLane="-E22_0" departPos="5.10" departSpeed="0.00" departDelay="24.80" arrival="91.00" arrivalLane="-E3_0" arrivalPos="89.60" arrivalSpeed="18.91" duration="21.00" routeLength="183.13" waitingTime="0.00" waitingCount="0" stopTime="0.00" timeLoss="14.98" rerouteNo="0" devices="tripinfo_226" vType="DEFAULT_VEHTYPE" speedFactor="1.24" vaporized=""/>
    <tripinfo id="89" depart="22.00" departLane="-E22_0" departPos="5.10" departSpeed="0.00" departDelay="4.20" arrival="92.00" arrivalLane="E11_0" arrivalPos="89.60" arrivalSpeed="20.80" duration="70.00" routeLength="883.13" waitingTime="16.00" waitingCount="1" stopTime="0.00" timeLoss="40.06" rerouteNo="0" devices="tripinfo_89" vType="DEFAULT_VEHTYPE" speedFactor="1.02" vaporized=""/>
    <tripinfo id="236" depart="74.00" departLane="-E22_0" departPos="5.10" departSpeed="0.00" departDelay="26.80" arrival="94.00" arrivalLane="-E3_0" arrivalPos="89.60" arrivalSpeed="19.58" duration="20.00" routeLength="183.13" waitingTime="0.00" waitingCount="0" stopTime="0.00" timeLoss="13.17" rerouteNo="0" devices="tripinfo_236" vType="DEFAULT_VEHTYPE" speedFactor="1.04" vaporized=""/>
    <tripinfo id="330" depart="76.00" departLane="-E6_0" departPos="5.10" departSpeed="0.00" departDelay="10.00" arrival="95.00" arrivalLane="-E7_0" arrivalPos="89.60" arrivalSpeed="19.37" duration="19.00" routeLength="183.13" waitingTime="0.00" waitingCount="0" stopTime="0.00" timeLoss="11.62" rerouteNo="0" devices="tripinfo_330" vType="DEFAULT_VEHTYPE" speedFactor="0.96" vaporized=""/>
    <tripinfo id="140" depart="28.00" departLane="E13_0" departPos="5.10" departSpeed="0.00" departDelay="0.00" arrival="101.00" arrivalLane="-E3_1" arrivalPos="89.60" arrivalSpeed="19.56" duration="73.00" routeLength="1492.00" waitingTime="2.00" waitingCount="1" stopTime="0.00" timeLoss="24.81" rerouteNo="0" devices="tripinfo_140" vType="DEFAULT_VEHTYPE" speedFactor="1.11" vaporized=""/>
    <tripinfo id="45" depart="14.00" departLane="-E16_0" departPos="5.10" departSpeed="0.00" departDelay="5.00" arrival="102.00" arrivalLane="E20_0" arrivalPos="89.60" arrivalSpeed="19.15" duration="88.00" routeLength="1376.62" waitingTime="6.00" waitingCount="1" stopTime="0.00" timeLoss="41.59" rerouteNo="0" devices="tripinfo_45" vType="DEFAULT_VEHTYPE" speedFactor="1.09" vaporized=""/>
    <tripinfo id="106" depart="36.00" departLane="-E22_0" departPos="5.10" departSpeed="0.00" departDelay="14.80" arrival="103.00" arrivalLane="E11_0" arrivalPos="89.60" arrivalSpeed="19.80" duration="67.00" routeLength="883.13" waitingTime="8.00" waitingCount="1" stopTime="0.00" timeLoss="36.01" rerouteNo="0" devices="tripinfo_106" vType="DEFAULT_VEHTYPE" speedFactor="1.01" vaporized=""/>
    <tripinfo id="31" depart="7.00" departLane="-E6_0" departPos="5.10" departSpeed="0.00" departDelay="0.80" arrival="108.00" arrivalLane="E20_1" arrivalPos="89.60" arrivalSpeed="19.76" duration="101.00" routeLength="892.00" waitingTime="44.00" waitingCount="2" stopTime="0.00" timeLoss="72.99" rerouteNo="0" devices="tripinfo_31" vType="DEFAULT_VEHTYPE" speedFactor="1.15" vaporized=""/>
    <tripinfo id="108" depart="24.00" departLane="-E6_0" departPos="5.10" departSpeed="0.00" departDelay="2.40" arrival="109.00" arrivalLane="E21_0" arrivalPos="89.60" arrivalSpeed="18.13" duration="85.00" routeLength="583.13" waitingTime="45.00" waitingCount="1" stopTime="0.00" timeLoss="66.11" rerouteNo="0" devices="tripinfo_108" vType="DEFAULT_VEHTYPE" speedFactor="1.06" vaporized=""/>
    <tripinfo id="40" depart="9.00" departLane="-E6_0" departPos="5.10" departSpeed="0.00" departDelay="1.00" arrival="110.00" arrivalLane="-E3_0" arrivalPos="89.60" arrivalSpeed="21.04" duration="101.00" routeLength="994.90" waitingTime="48.00" waitingCount="1" stopTime="0.00" timeLoss="68.32" rerouteNo="0" devices="tripinfo_40" vType="DEFAULT_VEHTYPE" speedFactor="1.03" vaporized=""/>
    <tripinfo id="116" depart="33.00" departLane="-E6_0" departPos="5.10" departSpeed="0.00" departDelay="9.80" arrival="110.00" arrivalLane="E20_1" arrivalPos="89.60" arrivalSpeed="20.79" duration="77.00" routeLength="892.00" waitingTime="21.00" waitingCount="2" stopTime="0.00" timeLoss="49.05" rerouteNo="0" devices="tripinfo_116" vType="DEFAULT_VEHTYPE" speedFactor="1.18" vaporized=""/>
    <tripinfo id="10" depart="7.00" departLane="E3_0" departPos="5.10" departSpeed="0.00" departDelay="5.00" arrival="111.00" arrivalLane="E20_1" arrivalPos="89.60" arrivalSpeed="20.44" duration="104.00" routeLength="1681.68" waitingTime="17.00" waitingCount="2" stopTime="0.00" timeLoss="50.28" rerouteNo="0" devices="tripinfo_10" vType="DEFAULT_VEHTYPE" speedFactor="1.09" vaporized=""/>
    <tripinfo id="94" depart="23.00" departLane="-E16_0" departPos="5.10" departSpeed="0.00" departDelay="4.20" arrival="111.00" arrivalLane="E11_0" arrivalPos="89.60" arrivalSpeed="20.62" duration="88.00" routeLength="1502.50" waitingTime="11.00" waitingCount="1" stopTime="0.00" timeLoss="41.14" rerouteNo="0" devices="tripinfo_94" vType="DEFAULT_VEHTYPE" speedFactor="1.09" vaporized=""/>
    <tripinfo id="41" depart="12.00" departLane="-E6_0" departPos="5.10" departSpeed="0.00" departDelay="3.80" arrival="112.00" arrivalLane="E22_0" arrivalPos="89.60" arrivalSpeed="19.82" duration="100.00" routeLength="983.13" waitingTime="47.00" waitingCount="1" stopTime="0.00" timeLoss="64.02" rerouteNo="0" devices="tripinfo_41" vType="DEFAULT_VEHTYPE" speedFactor="0.96" vaporized=""/>
    <tripinfo id="394" depart="93.00" departLane="-E6_0" departPos="5.10" departSpeed="0.00" departDelay="14.20" arrival="112.00" arrivalLane="-E7_0" arrivalPos="89.60" arrivalSpeed="20.55" duration="19.00" routeLength="183.13" waitingTime="0.00" waitingCount="0" stopTime="0.00" timeLoss="12.71" rerouteNo="0" devices="tripinfo_394" vType="DEFAULT_VEHTYPE" speedFactor="1.19" vaporized=""/>
    <tripinfo id="64" depart="32.00" departLane="E3_0" departPos="5.10" departSpeed="0.00" departDelay="19.20" arrival="113.00" arrivalLane="E22_1" arrivalPos="89.60" arrivalSpeed="19.86" duration="81.00" routeLength="193.45" waitingTime="57.00" waitingCount="2" stopTime="0.00" timeLoss="72.24" rerouteNo="0" devices="tripinfo_64" vType="DEFAULT_VEHTYPE" speedFactor="0.94" vaporized=""/>
    <tripinfo id="111" depart="27.00" departLane="-E6_0" departPos="5.10" departSpeed="0.00" departDelay="4.80" arrival="113.00" arrivalLane="E21_0" arrivalPos="89.60" arrivalSpeed="19.12" duration="86.00" routeLength="583.13" waitingTime="43.00" waitingCount="1" stopTime="0.00" timeLoss="61.88" rerouteNo="0" devices="tripinfo_111" vType="DEFAULT_VEHTYPE" speedFactor="0.87" vaporized=""/>
    <tripinfo id="119" depart="35.00" departLane="-E6_0" departPos="5.10" departSpeed="0.00" departDelay="11.20" arrival="115.00" arrivalLane="E20_1" arrivalPos="89.60" arrivalSpeed="22.19" duration="80.00" routeLength="892.00" waitingTime="15.00" waitingCount="2" stopTime="0.00" timeLoss="48.17" rerouteNo="0" devices="tripinfo_119" vType="DEFAULT_VEHTYPE" speedFactor="1.07" vaporized=""/>
    <tripinfo id="153" depart="32.00" departLane="-E21_0" departPos="5.10" departSpeed="0.00" departDelay="1.40" arrival="115.00" arrivalLane="E22_0" arrivalPos="89.60" arrivalSpeed="19.28" duration="83.00" routeLength="571.36" waitingTime="26.00" waitingCount="2" stopTime="0.00" timeLoss="59.38" rerouteNo="0" devices="tripinfo_153" vType="DEFAULT_VEHTYPE" speedFactor="0.93" vaporized=""/>
    <tripinfo id="25" depart="9.00" departLane="-E21_0" departPos="5.10" departSpeed="0.00" departDelay="4.00" arrival="116.00" arrivalLane="-E3_1" arrivalPos="89.60" arrivalSpeed="20.34" duration="107.00" routeLength="583.13" waitingTime="52.00" waitingCount="2" stopTime="0.00" timeLoss="82.53" rerouteNo="0" devices="tripinfo_25" vType="DEFAULT_VEHTYPE" speedFactor="0.87" vaporized=""/>
    <tripinfo id="369" depart="75.00" departLane="-E21_0" departPos="5.10" departSpeed="0.00" departDelay="1.20" arrival="116.00" arrivalLane="-E7_1" arrivalPos="89.60" arrivalSpeed="20.62" duration="41.00" routeLength="592.00" waitingTime="0.00" waitingCount="0" stopTime="0.00" timeLoss="19.12" rerouteNo="0" devices="tripinfo_369" vType="DEFAULT_VEHTYPE" speedFactor="1.02" vaporized=""/>
    <tripinfo id="14" depart="10.00" departLane="E3_0" departPos="5.10" departSpeed="0.00" departDelay="7.20" arrival="117.00" arrivalLane="E20_1" arrivalPos="89.60" arrivalSpeed="20.17" duration="107.00" routeLength="1681.68" waitingTime="13.00" waitingCount="2" stopTime="0.00" timeLoss="47.10" rerouteNo="0" devices="tripinfo_14" vType="DEFAULT_VEHTYPE" speedFactor="0.99" vaporized=""/>
    <tripinfo id="17" depart="6.00" departLane="-E21_0" departPos="5.10" departSpeed="0.00" departDelay="2.60" arrival="117.00" arrivalLane="E16_0" arrivalPos="89.60" arrivalSpeed="27.63" duration="111.00" routeLength="1803.11" waitingTime="30.00" waitingCount="1" stopTime="0.00" timeLoss="47.13" rerouteNo="0" devices="tripinfo_17" vType="DEFAULT_VEHTYPE" speedFactor="0.94" vaporized=""/>
    <tripinfo id="234" depart="60.00" departLane="E13_0" departPos="5.10" departSpeed="0.00" departDelay="13.20" arrival="117.00" arrivalLane="-E0_0" arrivalPos="89.60" arrivalSpeed="20.42" duration="57.00" routeLength="183.13" waitingTime="31.00" waitingCount="1" stopTime="0.00" timeLoss="48.56" rerouteNo="0" devices="tripinfo_234" vType="DEFAULT_VEHTYPE" speedFactor="0.91" vaporized=""/>
    <tripinfo id="375" depart="80.00" departLane="-E21_0" departPos="5.10" departSpeed="0.00" departDelay="5.00" arrival="117.00" arrivalLane="E6_1" arrivalPos="89.60" arrivalSpeed="23.24" duration="37.00" routeLength="593.45" waitingTime="0.00" waitingCount="0" stopTime="0.00" timeLoss="10.10" rerouteNo="0" devices="tripinfo_375" vType="DEFAULT_VEHTYPE" speedFactor="0.81" vaporized=""/>
    <tripinfo id="34" depart="12.00" departLane="-E21_0" departPos="5.10" departSpeed="0.00" departDelay="5.20" arrival="118.00" arrivalLane="-E3_1" arrivalPos="89.60" arrivalSpeed="21.21" duration="106.00" routeLength="583.13" waitingTime="49.00" waitingCount="2" stopTime="0.00" timeLoss="84.58" rerouteNo="0" devices="tripinfo_34" vType="DEFAULT_VEHTYPE" speedFactor="0.99" vaporized=""/>
    <tripinfo id="172" depart="37.00" departLane="-E21_0" departPos="5.10" departSpeed="0.00" departDelay="2.60" arrival="118.00" arrivalLane="E22_0" arrivalPos="89.60" arrivalSpeed="19.98" duration="81.00" routeLength="571.36" waitingTime="20.00" waitingCount="2" stopTime="0.00" timeLoss="56.85" rerouteNo="0" devices="tripinfo_172" vType="DEFAULT_VEHTYPE" speedFactor="0.89" vaporized=""/>
    <tripinfo id="403" depart="100.00" departLane="-E6_0" departPos="5.10" departSpeed="0.00" departDelay="19.40" arrival="118.00" arrivalLane="-E7_0" arrivalPos="89.60" arrivalSpeed="20.82" duration="18.00" routeLength="183.13" waitingTime="0.00" waitingCount="0" stopTime="0.00" timeLoss="11.20" rerouteNo="0" devices="tripinfo_403" vType="DEFAULT_VEHTYPE" speedFactor="1.09" vaporized=""/>
    <tripinfo id="42" depart="15.00" departLane="-E21_0" departPos="5.10" departSpeed="0.00" departDelay="6.60" arrival="119.00" arrivalLane="-E3_1" arrivalPos="89.60" arrivalSpeed="19.84" duration="104.00" routeLength="583.13" waitingTime="48.00" waitingCount="2" stopTime="0.00" timeLoss="85.48" rerouteNo="0" devices="tripinfo_42" vType="DEFAULT_VEHTYPE" speedFactor="1.09" vaporized=""/>
    <tripinfo id="53" depart="17.00" departLane="-E16_0" departPos="5.10" departSpeed="0.00" departDelay="6.40" arrival="119.00" arrivalLane="E11_0" arrivalPos="89.60" arrivalSpeed="21.42" duration="102.00" routeLength="1502.50" waitingTime="20.00" waitingCount="2" stopTime="0.00" timeLoss="54.29" rerouteNo="0" devices="tripinfo_53" vType="DEFAULT_VEHTYPE" speedFactor="1.10" vaporized=""/>
    <tripinfo id="78" depart="21.00" departLane="-E21_0" departPos="5.10" departSpeed="0.00" departDelay="5.40" arrival="119.00" arrivalLane="E16_1" arrivalPos="89.60" arrivalSpeed="29.19" duration="98.00" routeLength="1803.11" waitingTime="18.00" waitingCount="1" stopTime="0.00" timeLoss="38.02" rerouteNo="0" devices="tripinfo_78" vType="DEFAULT_VEHTYPE" speedFactor="1.01" vaporized=""/>
    <tripinfo id="185" depart="39.00" departLane="-E6_0" departPos="5.10" departSpeed="0.00" departDelay="2.00" arrival="119.00" arrivalLane="E21_0" arrivalPos="89.60" arrivalSpeed="18.79" duration="80.00" routeLength="583.13" waitingTime="35.00" waitingCount="1" stopTime="0.00" timeLoss="56.82" rerouteNo="0" devices="tripinfo_185" vType="DEFAULT_VEHTYPE" speedFactor="0.92" vaporized=""/>
    <tripinfo id="189" depart="46.00" departLane="-E21_0" departPos="5.10" departSpeed="0.00" departDelay="8.20" arrival="120.00" arrivalLane="E22_0" arrivalPos="89.60" arrivalSpeed="19.34" duration="74.00" routeLength="571.36" waitingTime="14.00" waitingCount="2" stopTime="0.00" timeLoss="51.28" rerouteNo="0" devices="tripinfo_189" vType="DEFAULT_VEHTYPE" speedFactor="0.97" vaporized=""/>
    <tripinfo id="238" depart="52.00" departLane="-E6_0" departPos="5.10" departSpeed="0.00" departDelay="4.40" arrival="120.00" arrivalLane="E20_1" arrivalPos="89.60" arrivalSpeed="20.57" duration="68.00" routeLength="892.00" waitingTime="2.00" waitingCount="1" stopTime="0.00" timeLoss="38.20" rerouteNo="0" devices="tripinfo_238" vType="DEFAULT_VEHTYPE" speedFactor="1.10" vaporized=""/>
    <tripinfo id="312" depart="70.00" departLane="-E6_0" departPos="5.10" departSpeed="0.00" departDelay="7.60" arrival="120.00" arrivalLane="E21_0" arrivalPos="89.60" arrivalSpeed="19.07" duration="50.00" routeLength="583.13" waitingTime="5.00" waitingCount="1" stopTime="0.00" timeLoss="31.73" rerouteNo="0" devices="tripinfo_312" vType="DEFAULT_VEHTYPE" speedFactor="1.11" vaporized=""/>
    <tripinfo id="274" depart="69.00" departLane="E13_0" departPos="5.10" departSpeed="0.00" departDelay="14.20" arrival="121.00" arrivalLane="-E0_0" arrivalPos="89.60" arrivalSpeed="20.29" duration="52.00" routeLength="183.13" waitingTime="25.00" waitingCount="1" stopTime="0.00" timeLoss="42.86" rerouteNo="0" devices="tripinfo_274" vType="DEFAULT_VEHTYPE" speedFactor="0.85" vaporized=""/>
    <tripinfo id="359" depart="72.00" departLane="-E21_0" departPos="5.10" departSpeed="0.00" departDelay="0.20" arrival="121.00" arrivalLane="-E3_1" arrivalPos="89.60" arrivalSpeed="21.59" duration="49.00" routeLength="583.13" waitingTime="0.00" waitingCount="0" stopTime="0.00" timeLoss="24.51" rerouteNo="0" devices="tripinfo_359" vType="DEFAULT_VEHTYPE" speedFactor="0.86" vaporized=""/>
    <tripinfo id="23" depart="5.00" departLane="-E16_0" departPos="5.10" departSpeed="0.00" departDelay="0.40" arrival="122.00" arrivalLane="-E3_1" arrivalPos="89.60" arrivalSpeed="20.73" duration="117.00" routeLength="2201.66" waitingTime="3.00" waitingCount="1" stopTime="0.00" timeLoss="32.94" rerouteNo="0" devices="tripinfo_23" vType="DEFAULT_VEHTYPE" speedFactor="0.89" vaporized=""/>
    <tripinfo id="244" depart="53.00" departLane="-E6_0" departPos="5.10" departSpeed="0.00" departDelay="4.20" arrival="122.00" arrivalLane="E20_1" arrivalPos="89.60" arrivalSpeed="19.87" duration="69.00" routeLength="892.00" waitingTime="0.00" waitingCount="0" stopTime="0.00" timeLoss="36.78" rerouteNo="0" devices="tripinfo_244" vType="DEFAULT_VEHTYPE" speedFactor="1.02" vaporized=""/>
    <tripinfo id="297" depart="67.00" departLane="-E21_0" departPos="5.10" departSpeed="0.00" departDelay="7.60" arrival="122.00" arrivalLane="E22_0" arrivalPos="89.60" arrivalSpeed="20.18" duration="55.00" routeLength="571.36" waitingTime="3.00" waitingCount="1" stopTime="0.00" timeLoss="33.83" rerouteNo="0" devices="tripinfo_297" vType="DEFAULT_VEHTYPE" speedFactor="0.98" vaporized=""/>
    <tripinfo id="130" depart="52.00" departLane="E3_0" departPos="5.10" departSpeed="0.00" departDelay="26.00" arrival="127.00" arrivalLane="E22_1" arrivalPos="89.60" arrivalSpeed="20.42" duration="75.00" routeLength="193.45" waitingTime="44.00" waitingCount="2" stopTime="0.00" timeLoss="67.02" rerouteNo="0" devices="tripinfo_130" vType="DEFAULT_VEHTYPE" speedFactor="1.03" vaporized=""/>
    <tripinfo id="32" depart="22.00" departLane="E3_0" departPos="5.10" departSpeed="0.00" departDelay="15.60" arrival="132.00" arrivalLane="E21_1" arrivalPos="89.60" arrivalSpeed="19.13" duration="110.00" routeLength="593.45" waitingTime="66.00" waitingCount="2" stopTime="0.00" timeLoss="88.91" rerouteNo="0" devices="tripinfo_32" vType="DEFAULT_VEHTYPE" speedFactor="1.01" vaporized=""/>
    <tripinfo id="367" depart="85.00" departLane="-E6_0" departPos="5.10" departSpeed="0.00" departDelay="11.60" arrival="134.00" arrivalLane="E20_1" arrivalPos="89.60" arrivalSpeed="21.29" duration="49.00" routeLength="892.00" waitingTime="0.00" waitingCount="0" stopTime="0.00" timeLoss="16.82" rerouteNo="0" devices="tripinfo_367" vType="DEFAULT_VEHTYPE" speedFactor="1.00" vaporized=""/>
    <tripinfo id="113" depart="30.00" departLane="-E6_0" departPos="5.10" departSpeed="0.00" departDelay="7.40" arrival="137.00" arrivalLane="E22_0" arrivalPos="89.60" arrivalSpeed="20.03" duration="107.00" routeLength="983.13" waitingTime="42.00" waitingCount="1" stopTime="0.00" timeLoss="72.71" rerouteNo="0" devices="tripinfo_113" vType="DEFAULT_VEHTYPE" speedFactor="1.01" vaporized=""/>
    <tripinfo id="266" depart="55.00" departLane="-E6_0" departPos="5.10" departSpeed="0.00" departDelay="1.80" arrival="141.00" arrivalLane="-E3_0" arrivalPos="89.60" arrivalSpeed="22.75" duration="86.00" routeLength="994.90" waitingTime="19.00" waitingCount="1" stopTime="0.00" timeLoss="51.58" rerouteNo="0" devices="tripinfo_266" vType="DEFAULT_VEHTYPE" speedFactor="0.98" vaporized=""/>
    <tripinfo id="319" depart="73.00" departLane="-E6_0" departPos="5.10" departSpeed="0.00" departDelay="9.20" arrival="142.00" arrivalLane="-E3_0" arrivalPos="89.60" arrivalSpeed="22.20" duration="69.00" routeLength="994.90" waitingTime="1.00" waitingCount="1" stopTime="0.00" timeLoss="39.63" rerouteNo="0" devices="tripinfo_319" vType="DEFAULT_VEHTYPE" speedFactor="1.13" vaporized=""/>
    <tripinfo id="86" depart="20.00" departLane="-E22_0" departPos="5.10" departSpeed="0.00" departDelay="2.80" arrival="144.00" arrivalLane="E21_1" arrivalPos="89.60" arrivalSpeed="19.23" duration="124.00" routeLength="592.00" waitingTime="59.00" waitingCount="4" stopTime="0.00" timeLoss="101.02" rerouteNo="0" devices="tripinfo_86" vType="DEFAULT_VEHTYPE" speedFactor="1.00" vaporized=""/>
    <tripinfo id="343" depart="82.00" departLane="-E6_0" departPos="5.10" departSpeed="0.00" departDelay="13.40" arrival="144.00" arrivalLane="-E3_0" arrivalPos="89.60" arrivalSpeed="24.91" duration="62.00" routeLength="994.90" waitingTime="0.00" waitingCount="0" stopTime="0.00" timeLoss="26.45" rerouteNo="0" devices="tripinfo_343" vType="DEFAULT_VEHTYPE" speedFactor="0.95" vaporized=""/>