<?xml version="1.0" encoding="UTF-8"?>

<!-- generated on 2024-01-30 19:22:49 by Eclipse SUMO sumo Version 1.18.0
<configuration xmlns:xsi="http://www.w3.org/2001/XMLSchema-instance" xsi:noNamespaceSchemaLocation="http://sumo.dlr.de/xsd/sumoConfiguration.xsd">

    <input>
        <net-file value="../config_5/road_network.net.xml"/>
        <route-files value="../config_5/road_network_map.rou.xml"/>
        <additional-files value="../config_5/road_network_additional.add.xml"/>
    </input>

    <output>
        <tripinfo-output value="../config_5/tripinfo.xml"/>
    </output>

    <traci_server>
        <remote-port value="52344"/>
    </traci_server>

</configuration>
-->

<tripinfos xmlns:xsi="http://www.w3.org/2001/XMLSchema-instance" xsi:noNamespaceSchemaLocation="http://sumo.dlr.de/xsd/tripinfo_file.xsd">
    <tripinfo id="28" depart="15.00" departLane="-E29_0" departPos="5.10" departSpeed="0.00" departDelay="1.00" arrival="35.00" arrivalLane="E31_1" arrivalPos="89.60" arrivalSpeed="16.71" duration="20.00" routeLength="193.45" waitingTime="0.00" waitingCount="0" stopTime="0.00" timeLoss="6.72" rerouteNo="0" devices="tripinfo_28" vType="DEFAULT_VEHTYPE" speedFactor="0.87" vaporized=""/>
    <tripinfo id="45" depart="23.00" departLane="-E29_0" departPos="5.10" departSpeed="0.00" departDelay="0.50" arrival="41.00" arrivalLane="E30_0" arrivalPos="89.60" arrivalSpeed="20.91" duration="18.00" routeLength="183.13" waitingTime="0.00" waitingCount="0" stopTime="0.00" timeLoss="8.12" rerouteNo="0" devices="tripinfo_45" vType="DEFAULT_VEHTYPE" speedFactor="1.09" vaporized=""/>
    <tripinfo id="2" depart="1.00" departLane="E27_0" departPos="5.10" departSpeed="0.00" departDelay="0.00" arrival="47.00" arrivalLane="E30_1" arrivalPos="89.60" arrivalSpeed="17.90" duration="46.00" routeLength="593.45" waitingTime="2.00" waitingCount="1" stopTime="0.00" timeLoss="12.70" rerouteNo="0" devices="tripinfo_2" vType="DEFAULT_VEHTYPE" speedFactor="0.94" vaporized=""/>
    <tripinfo id="5" depart="4.00" departLane="-E30_0" departPos="5.10" departSpeed="0.00" departDelay="1.50" arrival="55.00" arrivalLane="E29_1" arrivalPos="89.60" arrivalSpeed="19.44" duration="51.00" routeLength="193.45" waitingTime="27.00" waitingCount="1" stopTime="0.00" timeLoss="39.84" rerouteNo="0" devices="tripinfo_5" vType="DEFAULT_VEHTYPE" speedFactor="1.03" vaporized=""/>
    <tripinfo id="17" depart="9.00" departLane="-E31_0" departPos="5.10" departSpeed="0.00" departDelay="0.50" arrival="55.00" arrivalLane="E29_0" arrivalPos="89.60" arrivalSpeed="18.62" duration="46.00" routeLength="183.13" waitingTime="23.00" waitingCount="1" stopTime="0.00" timeLoss="35.25" rerouteNo="0" devices="tripinfo_17" vType="DEFAULT_VEHTYPE" speedFactor="0.99" vaporized=""/>
    <tripinfo id="24" depart="12.00" departLane="E23_0" departPos="5.10" departSpeed="0.00" departDelay="0.00" arrival="55.00" arrivalLane="-E34_1" arrivalPos="89.60" arrivalSpeed="19.30" duration="43.00" routeLength="193.45" waitingTime="21.00" waitingCount="1" stopTime="0.00" timeLoss="32.13" rerouteNo="0" devices="tripinfo_24" vType="DEFAULT_VEHTYPE" speedFactor="1.01" vaporized=""/>
    <tripinfo id="22" depart="11.00" departLane="-E26_0" departPos="5.10" departSpeed="0.00" departDelay="0.00" arrival="56.00" arrivalLane="-E32_0" arrivalPos="89.60" arrivalSpeed="19.84" duration="45.00" routeLength="183.13" waitingTime="22.00" waitingCount="1" stopTime="0.00" timeLoss="36.15" rerouteNo="0" devices="tripinfo_22" vType="DEFAULT_VEHTYPE" speedFactor="1.16" vaporized=""/>
    <tripinfo id="20" depart="10.00" departLane="E27_0" departPos="5.10" departSpeed="0.00" departDelay="0.00" arrival="57.00" arrivalLane="-E23_1" arrivalPos="89.60" arrivalSpeed="17.93" duration="47.00" routeLength="683.13" waitingTime="0.00" waitingCount="0" stopTime="0.00" timeLoss="9.51" rerouteNo="0" devices="tripinfo_20" vType="DEFAULT_VEHTYPE" speedFactor="0.94" vaporized=""/>
    <tripinfo id="8" depart="6.00" departLane="-E30_0" departPos="5.10" departSpeed="0.00" departDelay="2.00" arrival="58.00" arrivalLane="E29_1" arrivalPos="89.60" arrivalSpeed="17.06" duration="52.00" routeLength="193.45" waitingTime="27.00" waitingCount="1" stopTime="0.00" timeLoss="38.88" rerouteNo="0" devices="tripinfo_8" vType="DEFAULT_VEHTYPE" speedFactor="0.89" vaporized=""/>
    <tripinfo id="78" depart="39.00" departLane="-E31_0" departPos="5.10" departSpeed="0.00" departDelay="0.00" arrival="58.00" arrivalLane="E29_0" arrivalPos="89.60" arrivalSpeed="16.71" duration="19.00" routeLength="183.13" waitingTime="0.00" waitingCount="0" stopTime="0.00" timeLoss="8.27" rerouteNo="0" devices="tripinfo_78" vType="DEFAULT_VEHTYPE" speedFactor="1.02" vaporized=""/>
    <tripinfo id="37" depart="19.00" departLane="E23_0" departPos="5.10" departSpeed="0.00" departDelay="0.50" arrival="62.00" arrivalLane="-E34_1" arrivalPos="89.60" arrivalSpeed="19.39" duration="43.00" routeLength="193.45" waitingTime="17.00" waitingCount="2" stopTime="0.00" timeLoss="31.85" rerouteNo="0" devices="tripinfo_37" vType="DEFAULT_VEHTYPE" speedFactor="0.99" vaporized=""/>
    <tripinfo id="46" depart="23.00" departLane="E27_0" departPos="5.10" departSpeed="0.00" departDelay="0.00" arrival="67.00" arrivalLane="E26_1" arrivalPos="89.60" arrivalSpeed="19.78" duration="44.00" routeLength="693.45" waitingTime="0.00" waitingCount="0" stopTime="0.00" timeLoss="9.22" rerouteNo="0" devices="tripinfo_46" vType="DEFAULT_VEHTYPE" speedFactor="1.04" vaporized=""/>
    <tripinfo id="11" depart="6.00" departLane="-E31_0" departPos="5.10" departSpeed="0.00" departDelay="0.50" arrival="73.00" arrivalLane="-E27_1" arrivalPos="89.60" arrivalSpeed="21.11" duration="67.00" routeLength="593.45" waitingTime="26.00" waitingCount="1" stopTime="0.00" timeLoss="38.92" rerouteNo="0" devices="tripinfo_11" vType="DEFAULT_VEHTYPE" speedFactor="1.09" vaporized=""/>
    <tripinfo id="105" depart="61.00" departLane="-E30_0" departPos="5.10" departSpeed="0.00" departDelay="8.50" arrival="76.00" arrivalLane="E31_1" arrivalPos="89.60" arrivalSpeed="18.19" duration="15.00" routeLength="194.90" waitingTime="0.00" waitingCount="0" stopTime="0.00" timeLoss="4.29" rerouteNo="0" devices="tripinfo_105" vType="DEFAULT_VEHTYPE" speedFactor="0.92" vaporized=""/>
    <tripinfo id="23" depart="12.00" departLane="-E29_0" departPos="5.10" departSpeed="0.00" departDelay="0.50" arrival="81.00" arrivalLane="-E32_1" arrivalPos="89.60" arrivalSpeed="19.16" duration="69.00" routeLength="1081.68" waitingTime="0.00" waitingCount="0" stopTime="0.00" timeLoss="13.20" rerouteNo="0" devices="tripinfo_23" vType="DEFAULT_VEHTYPE" speedFactor="1.02" vaporized=""/>
    <tripinfo id="128" depart="64.00" departLane="-E26_0" departPos="5.10" departSpeed="0.00" departDelay="0.00" arrival="81.00" arrivalLane="-E32_0" arrivalPos="89.60" arrivalSpeed="18.93" duration="17.00" routeLength="183.13" waitingTime="0.00" waitingCount="0" stopTime="0.00" timeLoss="7.98" rerouteNo="0" devices="tripinfo_128" vType="DEFAULT_VEHTYPE" speedFactor="1.10" vaporized=""/>
    <tripinfo id="122" depart="65.00" departLane="-E30_0" departPos="5.10" departSpeed="0.00" departDelay="4.00" arrival="82.00" arrivalLane="E31_1" arrivalPos="89.60" arrivalSpeed="21.27" duration="17.00" routeLength="194.90" waitingTime="0.00" waitingCount="0" stopTime="0.00" timeLoss="7.25" rerouteNo="0" devices="tripinfo_122" vType="DEFAULT_VEHTYPE" speedFactor="1.06" vaporized=""/>
    <tripinfo id="133" depart="67.00" departLane="E23_0" departPos="5.10" departSpeed="0.00" departDelay="0.50" arrival="86.00" arrivalLane="E35_0" arrivalPos="89.60" arrivalSpeed="19.45" duration="19.00" routeLength="183.13" waitingTime="0.00" waitingCount="0" stopTime="0.00" timeLoss="8.67" rerouteNo="0" devices="tripinfo_133" vType="DEFAULT_VEHTYPE" speedFactor="1.00" vaporized=""/>
    <tripinfo id="136" depart="70.00" departLane="E23_0" departPos="5.10" departSpeed="0.00" departDelay="2.00" arrival="89.00" arrivalLane="E35_0" arrivalPos="89.60" arrivalSpeed="18.47" duration="19.00" routeLength="183.13" waitingTime="0.00" waitingCount="0" stopTime="0.00" timeLoss="8.73" rerouteNo="0" devices="tripinfo_136" vType="DEFAULT_VEHTYPE" speedFactor="0.99" vaporized=""/>
    <tripinfo id="149" depart="76.00" departLane="-E26_0" departPos="5.10" departSpeed="0.00" departDelay="1.50" arrival="95.00" arrivalLane="E33_1" arrivalPos="89.60" arrivalSpeed="19.42" duration="19.00" routeLength="193.45" waitingTime="0.00" waitingCount="0" stopTime="0.00" timeLoss="7.66" rerouteNo="0" devices="tripinfo_149" vType="DEFAULT_VEHTYPE" speedFactor="1.01" vaporized=""/>
    <tripinfo id="60" depart="30.00" departLane="E27_0" departPos="5.10" departSpeed="0.00" departDelay="0.00" arrival="100.00" arrivalLane="E29_0" arrivalPos="89.60" arrivalSpeed="19.62" duration="70.00" routeLength="594.90" waitingTime="27.00" waitingCount="1" stopTime="0.00" timeLoss="39.71" rerouteNo="0" devices="tripinfo_60" vType="DEFAULT_VEHTYPE" speedFactor="1.00" vaporized=""/>
    <tripinfo id="61" depart="33.00" departLane="E27_0" departPos="5.10" departSpeed="0.00" departDelay="2.50" arrival="100.00" arrivalLane="E29_1" arrivalPos="89.60" arrivalSpeed="19.00" duration="67.00" routeLength="594.90" waitingTime="22.00" waitingCount="1" stopTime="0.00" timeLoss="36.66" rerouteNo="0" devices="tripinfo_61" vType="DEFAULT_VEHTYPE" speedFactor="1.00" vaporized=""/>
    <tripinfo id="91" depart="46.00" departLane="E34_0" departPos="5.10" departSpeed="0.00" departDelay="0.50" arrival="100.00" arrivalLane="-E23_0" arrivalPos="89.60" arrivalSpeed="18.14" duration="54.00" routeLength="183.13" waitingTime="32.00" waitingCount="1" stopTime="0.00" timeLoss="43.55" rerouteNo="0" devices="tripinfo_91" vType="DEFAULT_VEHTYPE" speedFactor="1.00" vaporized=""/>
    <tripinfo id="53" depart="27.00" departLane="-E29_0" departPos="5.10" departSpeed="0.00" departDelay="0.50" arrival="101.00" arrivalLane="E26_0" arrivalPos="89.60" arrivalSpeed="16.58" duration="74.00" routeLength="1083.13" waitingTime="0.00" waitingCount="0" stopTime="0.00" timeLoss="9.43" rerouteNo="0" devices="tripinfo_53" vType="DEFAULT_VEHTYPE" speedFactor="0.85" vaporized=""/>
    <tripinfo id="100" depart="51.00" departLane="E34_0" departPos="5.10" departSpeed="0.00" departDelay="1.00" arrival="102.00" arrivalLane="E35_0" arrivalPos="89.60" arrivalSpeed="20.06" duration="51.00" routeLength="194.90" waitingTime="27.00" waitingCount="1" stopTime="0.00" timeLoss="40.61" rerouteNo="0" devices="tripinfo_100" vType="DEFAULT_VEHTYPE" speedFactor="1.01" vaporized=""/>
    <tripinfo id="107" depart="54.00" departLane="E34_0" departPos="5.10" departSpeed="0.00" departDelay="0.50" arrival="103.00" arrivalLane="E35_0" arrivalPos="89.60" arrivalSpeed="20.57" duration="49.00" routeLength="194.90" waitingTime="26.00" waitingCount="1" stopTime="0.00" timeLoss="39.59" rerouteNo="0" devices="tripinfo_107" vType="DEFAULT_VEHTYPE" speedFactor="1.06" vaporized=""/>
    <tripinfo id="127" depart="64.00" departLane="E34_0" departPos="5.10" departSpeed="0.00" departDelay="0.50" arrival="105.00" arrivalLane="E35_0" arrivalPos="89.60" arrivalSpeed="16.32" duration="41.00" routeLength="194.90" waitingTime="19.00" waitingCount="1" stopTime="0.00" timeLoss="29.60" rerouteNo="0" devices="tripinfo_127" vType="DEFAULT_VEHTYPE" speedFactor="0.87" vaporized=""/>
    <tripinfo id="84" depart="48.00" departLane="-E30_0" departPos="5.10" departSpeed="0.00" departDelay="6.00" arrival="106.00" arrivalLane="-E27_0" arrivalPos="89.60" arrivalSpeed="19.16" duration="58.00" routeLength="583.13" waitingTime="2.00" waitingCount="1" stopTime="0.00" timeLoss="26.77" rerouteNo="0" devices="tripinfo_84" vType="DEFAULT_VEHTYPE" speedFactor="0.98" vaporized=""/>
    <tripinfo id="98" depart="49.00" departLane="-E35_0" departPos="5.10" departSpeed="0.00" departDelay="0.00" arrival="109.00" arrivalLane="-E23_1" arrivalPos="89.60" arrivalSpeed="19.62" duration="60.00" routeLength="193.45" waitingTime="34.00" waitingCount="2" stopTime="0.00" timeLoss="49.31" rerouteNo="0" devices="tripinfo_98" vType="DEFAULT_VEHTYPE" speedFactor="1.00" vaporized=""/>
    <tripinfo id="117" depart="62.00" departLane="-E30_0" departPos="5.10" departSpeed="0.00" departDelay="3.50" arrival="110.00" arrivalLane="-E27_0" arrivalPos="89.60" arrivalSpeed="21.03" duration="48.00" routeLength="583.13" waitingTime="0.00" waitingCount="0" stopTime="0.00" timeLoss="19.82" rerouteNo="0" devices="tripinfo_117" vType="DEFAULT_VEHTYPE" speedFactor="1.07" vaporized=""/>
    <tripinfo id="1" depart="1.00" departLane="-E30_0" departPos="5.10" departSpeed="0.00" departDelay="0.50" arrival="113.00" arrivalLane="-E32_1" arrivalPos="89.60" arrivalSpeed="20.59" duration="112.00" routeLength="1069.91" waitingTime="32.00" waitingCount="2" stopTime="0.00" timeLoss="58.76" rerouteNo="0" devices="tripinfo_1" vType="DEFAULT_VEHTYPE" speedFactor="1.06" vaporized=""/>
    <tripinfo id="131" depart="66.00" departLane="-E31_0" departPos="5.10" departSpeed="0.00" departDelay="0.50" arrival="113.00" arrivalLane="-E27_0" arrivalPos="89.60" arrivalSpeed="17.89" duration="47.00" routeLength="593.45" waitingTime="0.00" waitingCount="0" stopTime="0.00" timeLoss="12.85" rerouteNo="0" devices="tripinfo_131" vType="DEFAULT_VEHTYPE" speedFactor="0.92" vaporized=""/>
    <tripinfo id="25" depart="13.00" departLane="-E31_0" departPos="5.10" departSpeed="0.00" departDelay="0.50" arrival="115.00" arrivalLane="-E32_1" arrivalPos="89.60" arrivalSpeed="19.04" duration="102.00" routeLength="1080.23" waitingTime="21.00" waitingCount="1" stopTime="0.00" timeLoss="43.33" rerouteNo="0" devices="tripinfo_25" vType="DEFAULT_VEHTYPE" speedFactor="0.97" vaporized=""/>
    <tripinfo id="147" depart="74.00" departLane="E27_0" departPos="5.10" departSpeed="0.00" departDelay="0.50" arrival="116.00" arrivalLane="E29_0" arrivalPos="89.60" arrivalSpeed="16.28" duration="42.00" routeLength="594.90" waitingTime="0.00" waitingCount="0" stopTime="0.00" timeLoss="5.23" rerouteNo="0" devices="tripinfo_147" vType="DEFAULT_VEHTYPE" speedFactor="0.82" vaporized=""/>
    <tripinfo id="90" depart="45.00" departLane="E27_0" departPos="5.10" departSpeed="0.00" departDelay="0.00" arrival="118.00" arrivalLane="E30_1" arrivalPos="89.60" arrivalSpeed="20.64" duration="73.00" routeLength="593.45" waitingTime="26.00" waitingCount="2" stopTime="0.00" timeLoss="42.77" rerouteNo="0" devices="tripinfo_90" vType="DEFAULT_VEHTYPE" speedFactor="1.03" vaporized=""/>
    <tripinfo id="197" depart="99.00" departLane="-E26_0" departPos="5.10" departSpeed="0.00" departDelay="0.50" arrival="119.00" arrivalLane="-E32_0" arrivalPos="89.60" arrivalSpeed="18.10" duration="20.00" routeLength="183.13" waitingTime="0.00" waitingCount="0" stopTime="0.00" timeLoss="9.29" rerouteNo="0" devices="tripinfo_197" vType="DEFAULT_VEHTYPE" speedFactor="0.96" vaporized=""/>
    <tripinfo id="34" depart="17.00" departLane="-E31_0" departPos="5.10" departSpeed="0.00" departDelay="0.00" arrival="122.00" arrivalLane="-E32_1" arrivalPos="89.60" arrivalSpeed="19.12" duration="105.00" routeLength="1080.23" waitingTime="19.00" waitingCount="2" stopTime="0.00" timeLoss="55.68" rerouteNo="0" devices="tripinfo_34" vType="DEFAULT_VEHTYPE" speedFactor="1.15" vaporized=""/>
    <tripinfo id="21" depart="11.00" departLane="-E30_0" departPos="5.10" departSpeed="0.00" departDelay="0.50" arrival="124.00" arrivalLane="-E32_1" arrivalPos="89.60" arrivalSpeed="17.84" duration="113.00" routeLength="1069.91" waitingTime="24.00" waitingCount="2" stopTime="0.00" timeLoss="52.58" rerouteNo="0" devices="tripinfo_21" vType="DEFAULT_VEHTYPE" speedFactor="0.94" vaporized=""/>
    <tripinfo id="154" depart="77.00" departLane="E27_0" departPos="5.10" departSpeed="0.00" departDelay="0.00" arrival="125.00" arrivalLane="E33_0" arrivalPos="89.60" arrivalSpeed="18.60" duration="48.00" routeLength="681.68" waitingTime="0.00" waitingCount="0" stopTime="0.00" timeLoss="18.87" rerouteNo="0" devices="tripinfo_154" vType="DEFAULT_VEHTYPE" speedFactor="1.23" vaporized=""/>
    <tripinfo id="211" depart="107.00" departLane="-E29_0" departPos="5.10" departSpeed="0.00" departDelay="1.50" arrival="126.00" arrivalLane="E30_0" arrivalPos="89.60" arrivalSpeed="17.79" duration="19.00" routeLength="183.13" waitingTime="0.00" waitingCount="0" stopTime="0.00" timeLoss="8.06" rerouteNo="0" devices="tripinfo_211" vType="DEFAULT_VEHTYPE" speedFactor="0.89" vaporized=""/>
    <tripinfo id="140" depart="70.00" departLane="E27_0" departPos="5.10" departSpeed="0.00" departDelay="0.00" arrival="127.00" arrivalLane="-E32_1" arrivalPos="89.60" arrivalSpeed="18.69" duration="57.00" routeLength="692.00" waitingTime="0.00" waitingCount="0" stopTime="0.00" timeLoss="17.25" rerouteNo="0" devices="tripinfo_140" vType="DEFAULT_VEHTYPE" speedFactor="0.94" vaporized=""/>
    <tripinfo id="217" depart="109.00" departLane="-E35_0" departPos="5.10" departSpeed="0.00" departDelay="0.50" arrival="127.00" arrivalLane="-E23_1" arrivalPos="89.60" arrivalSpeed="21.04" duration="18.00" routeLength="193.45" waitingTime="0.00" waitingCount="0" stopTime="0.00" timeLoss="7.98" rerouteNo="0" devices="tripinfo_217" vType="DEFAULT_VEHTYPE" speedFactor="1.10" vaporized=""/>
    <tripinfo id="157" depart="79.00" departLane="E27_0" departPos="5.10" departSpeed="0.00" departDelay="0.50" arrival="128.00" arrivalLane="E33_0" arrivalPos="89.60" arrivalSpeed="19.92" duration="49.00" routeLength="681.68" waitingTime="0.00" waitingCount="0" stopTime="0.00" timeLoss="16.06" rerouteNo="0" devices="tripinfo_157" vType="DEFAULT_VEHTYPE" speedFactor="1.12" vaporized=""/>
    <tripinfo id="42" depart="21.00" departLane="-E31_0" departPos="5.10" departSpeed="0.00" departDelay="0.00" arrival="130.00" arrivalLane="-E32_1" arrivalPos="89.60" arrivalSpeed="17.41" duration="109.00" routeLength="1080.23" waitingTime="14.00" waitingCount="1" stopTime="0.00" timeLoss="44.25" rerouteNo="0" devices="tripinfo_42" vType="DEFAULT_VEHTYPE" speedFactor="0.90" vaporized=""/>
    <tripinfo id="39" depart="23.00" departLane="-E30_0" departPos="5.10" departSpeed="0.00" departDelay="3.50" arrival="131.00" arrivalLane="-E32_1" arrivalPos="89.60" arrivalSpeed="18.98" duration="108.00" routeLength="1069.91" waitingTime="17.00" waitingCount="1" stopTime="0.00" timeLoss="49.89" rerouteNo="0" devices="tripinfo_39" vType="DEFAULT_VEHTYPE" speedFactor="0.97" vaporized=""/>
    <tripinfo id="71" depart="36.00" departLane="-E30_0" departPos="5.10" departSpeed="0.00" departDelay="0.50" arrival="131.00" arrivalLane="E33_0" arrivalPos="89.60" arrivalSpeed="19.51" duration="95.00" routeLength="1059.59" waitingTime="7.00" waitingCount="1" stopTime="0.00" timeLoss="38.40" rerouteNo="0" devices="tripinfo_71" vType="DEFAULT_VEHTYPE" speedFactor="0.99" vaporized=""/>
    <tripinfo id="137" depart="69.00" departLane="-E29_0" departPos="5.10" departSpeed="0.00" departDelay="0.50" arrival="132.00" arrivalLane="-E27_0" arrivalPos="89.60" arrivalSpeed="20.82" duration="63.00" routeLength="594.90" waitingTime="12.00" waitingCount="1" stopTime="0.00" timeLoss="34.60" rerouteNo="0" devices="tripinfo_137" vType="DEFAULT_VEHTYPE" speedFactor="1.07" vaporized=""/>
    <tripinfo id="186" depart="93.00" departLane="E27_0" departPos="5.10" departSpeed="0.00" departDelay="0.00" arrival="132.00" arrivalLane="E30_1" arrivalPos="89.60" arrivalSpeed="19.08" duration="39.00" routeLength="593.45" waitingTime="0.00" waitingCount="0" stopTime="0.00" timeLoss="11.54" rerouteNo="0" devices="tripinfo_186" vType="DEFAULT_VEHTYPE" speedFactor="1.13" vaporized=""/>
    <tripinfo id="230" depart="115.00" departLane="-E26_0" departPos="5.10" departSpeed="0.00" departDelay="0.00" arrival="133.00" arrivalLane="-E32_0" arrivalPos="89.60" arrivalSpeed="19.82" duration="18.00" routeLength="183.13" waitingTime="0.00" waitingCount="0" stopTime="0.00" timeLoss="8.04" rerouteNo="0" devices="tripinfo_230" vType="DEFAULT_VEHTYPE" speedFactor="1.03" vaporized=""/>
    <tripinfo id="152" depart="76.00" departLane="-E29_0" departPos="5.10" departSpeed="0.00" departDelay="0.00" arrival="138.00" arrivalLane="-E27_1" arrivalPos="89.60" arrivalSpeed="17.95" duration="62.00" routeLength="594.90" waitingTime="11.00" waitingCount="2" stopTime="0.00" timeLoss="30.59" rerouteNo="0" devices="tripinfo_152" vType="DEFAULT_VEHTYPE" speedFactor="0.96" vaporized=""/>
    <tripinfo id="64" depart="32.00" departLane="E32_0" departPos="5.10" departSpeed="0.00" departDelay="0.00" arrival="139.00" arrivalLane="E33_0" arrivalPos="89.60" arrivalSpeed="19.75" duration="107.00" routeLength="194.90" waitingTime="84.00" waitingCount="1" stopTime="0.00" timeLoss="97.30" rerouteNo="0" devices="tripinfo_64" vType="DEFAULT_VEHTYPE" speedFactor="1.02" vaporized=""/>
    <tripinfo id="72" depart="36.00" departLane="-E33_0" departPos="5.10" departSpeed="0.00" departDelay="0.00" arrival="139.00" arrivalLane="-E32_0" arrivalPos="89.60" arrivalSpeed="18.56" duration="103.00" routeLength="194.90" waitingTime="80.00" waitingCount="1" stopTime="0.00" timeLoss="92.50" rerouteNo="0" devices="tripinfo_72" vType="DEFAULT_VEHTYPE" speedFactor="0.94" vaporized=""/>
    <tripinfo id="89" depart="45.00" departLane="-E33_0" departPos="5.10" departSpeed="0.00" departDelay="0.50" arrival="141.00" arrivalLane="E26_0" arrivalPos="89.60" arrivalSpeed="19.92" duration="96.00" routeLength="183.13" waitingTime="73.00" waitingCount="1" stopTime="0.00" timeLoss="86.46" rerouteNo="0" devices="tripinfo_89" vType="DEFAULT_VEHTYPE" speedFactor="1.09" vaporized=""/>
    <tripinfo id="130" depart="65.00" departLane="E32_0" departPos="5.10" departSpeed="0.00" departDelay="0.00" arrival="141.00" arrivalLane="E33_1" arrivalPos="89.60" arrivalSpeed="20.66" duration="76.00" routeLength="194.90" waitingTime="54.00" waitingCount="1" stopTime="0.00" timeLoss="67.03" rerouteNo="0" devices="tripinfo_130" vType="DEFAULT_VEHTYPE" speedFactor="1.10" vaporized=""/>
    <tripinfo id="95" depart="49.00" departLane="-E33_0" departPos="5.10" departSpeed="0.00" departDelay="1.50" arrival="143.00" arrivalLane="-E32_0" arrivalPos="89.60" arrivalSpeed="21.59" duration="94.00" routeLength="194.90" waitingTime="71.00" waitingCount="1" stopTime="0.00" timeLoss="84.97" rerouteNo="0" devices="tripinfo_95" vType="DEFAULT_VEHTYPE" speedFactor="1.15" vaporized=""/>
    <tripinfo id="161" depart="83.00" departLane="E32_0" departPos="5.10" departSpeed="0.00" departDelay="2.50" arrival="143.00" arrivalLane="E33_1" arrivalPos="89.60" arrivalSpeed="21.63" duration="60.00" routeLength="194.90" waitingTime="38.00" waitingCount="1" stopTime="0.00" timeLoss="50.66" rerouteNo="0" devices="tripinfo_161" vType="DEFAULT_VEHTYPE" speedFactor="1.11" vaporized=""/>
    <tripinfo id="102" depart="52.00" departLane="-E33_0" departPos="5.10" departSpeed="0.00" departDelay="1.00" arrival="144.00" arrivalLane="-E32_0" arrivalPos="89.60" arrivalSpeed="19.31" duration="92.00" routeLength="194.90" waitingTime="70.00" waitingCount="1" stopTime="0.00" timeLoss="82.38" rerouteNo="0" devices="tripinfo_102" vType="DEFAULT_VEHTYPE" speedFactor="1.02" vaporized=""/>
    <tripinfo id="29" depart="17.00" departLane="-E29_0" departPos="5.10" departSpeed="0.00" departDelay="2.50" arrival="145.00" arrivalLane="-E34_0" arrivalPos="89.60" arrivalSpeed="17.87" duration="128.00" routeLength="1081.68" waitingTime="48.00" waitingCount="2" stopTime="0.00" timeLoss="66.07" rerouteNo="0" devices="tripinfo_29" vType="DEFAULT_VEHTYPE" speedFactor="0.92" vaporized=""/>
    <tripinfo id="164" depart="85.00" departLane="E32_0" departPos="5.10" departSpeed="0.00" departDelay="3.00" arrival="145.00" arrivalLane="E33_1" arrivalPos="89.60" arrivalSpeed="21.90" duration="60.00" routeLength="194.90" waitingTime="38.00" waitingCount="1" stopTime="0.00" timeLoss="50.43" rerouteNo="0" devices="tripinfo_164" vType="DEFAULT_VEHTYPE" speedFactor="1.13" vaporized=""/>
    <tripinfo id="65" depart="33.00" departLane="-E31_0" departPos="5.10" departSpeed="0.00" departDelay="0.50" arrival="147.00" arrivalLane="-E23_0" arrivalPos="89.60" arrivalSpeed="18.48" duration="114.00" routeLength="1092.00" waitingTime="16.00" waitingCount="3" stopTime="0.00" timeLoss="54.24" rerouteNo="0" devices="tripinfo_65" vType="DEFAULT_VEHTYPE" speedFactor="0.97" vaporized=""/>
    <tripinfo id="167" depart="88.00" departLane="E32_0" departPos="5.10" departSpeed="0.00" departDelay="4.50" arrival="147.00" arrivalLane="E33_1" arrivalPos="89.60" arrivalSpeed="13.76" duration="59.00" routeLength="194.90" waitingTime="36.00" waitingCount="1" stopTime="0.00" timeLoss="45.60" rerouteNo="0" devices="tripinfo_167" vType="DEFAULT_VEHTYPE" speedFactor="0.73" vaporized=""/>
    <tripinfo id="214" depart="107.00" departLane="E27_0" departPos="5.10" departSpeed="0.00" departDelay="0.00" arrival="147.00" arrivalLane="E31_0" arrivalPos="89.60" arrivalSpeed="19.17" duration="40.00" routeLength="583.13" waitingTime="0.00" waitingCount="0" stopTime="0.00" timeLoss="9.16" rerouteNo="0" devices="tripinfo_214" vType="DEFAULT_VEHTYPE" speedFactor="0.97" vaporized=""/>
    <tripinfo id="223" depart="112.00" departLane="E27_0" departPos="5.10" departSpeed="0.00" departDelay="0.50" arrival="147.00" arrivalLane="E29_0" arrivalPos="89.60" arrivalSpeed="20.24" duration="35.00" routeLength="594.90" waitingTime="0.00" waitingCount="0" stopTime="0.00" timeLoss="6.02" rerouteNo="0" devices="tripinfo_223" vType="DEFAULT_VEHTYPE" speedFactor="1.03" vaporized=""/>
    <tripinfo id="106" depart="56.00" departLane="-E33_0" departPos="5.10" departSpeed="0.00" departDelay="3.00" arrival="148.00" arrivalLane="E26_0" arrivalPos="89.60" arrivalSpeed="19.50" duration="92.00" routeLength="183.13" waitingTime="67.00" waitingCount="1" stopTime="0.00" timeLoss="82.18" rerouteNo="0" devices="tripinfo_106" vType="DEFAULT_VEHTYPE" speedFactor="1.09" vaporized=""/>
    <tripinfo id="144" depart="72.00" departLane="-E33_0" departPos="5.10" departSpeed="0.00" departDelay="0.00" arrival="150.00" arrivalLane="-E32_0" arrivalPos="89.60" arrivalSpeed="20.24" duration="78.00" routeLength="194.90" waitingTime="53.00" waitingCount="1" stopTime="0.00" timeLoss="67.89" rerouteNo="0" devices="tripinfo_144" vType="DEFAULT_VEHTYPE" speedFactor="1.06" vaporized=""/>
    <tripinfo id="74" depart="39.00" departLane="-E30_0" departPos="5.10" departSpeed="0.00" departDelay="2.00" arrival="151.00" arrivalLane="-E34_0" arrivalPos="89.60" arrivalSpeed="17.77" duration="112.00" routeLength="1069.91" waitingTime="10.00" waitingCount="2" stopTime="0.00" timeLoss="49.32" rerouteNo="0" devices="tripinfo_74" vType="DEFAULT_VEHTYPE" speedFactor="0.91" vaporized=""/>
    <tripinfo id="174" depart="87.00" departLane="E23_0" departPos="5.10" departSpeed="0.00" departDelay="0.00" arrival="151.00" arrivalLane="-E34_1" arrivalPos="89.60" arrivalSpeed="20.06" duration="64.00" routeLength="193.45" waitingTime="40.00" waitingCount="2" stopTime="0.00" timeLoss="53.03" rerouteNo="0" devices="tripinfo_174" vType="DEFAULT_VEHTYPE" speedFactor="1.00" vaporized=""/>
    <tripinfo id="220" depart="110.00" departLane="E23_0" departPos="5.10" departSpeed="0.00" departDelay="0.00" arrival="151.00" arrivalLane="E35_0" arrivalPos="89.60" arrivalSpeed="19.91" duration="41.00" routeLength="183.13" waitingTime="17.00" waitingCount="1" stopTime="0.00" timeLoss="30.81" rerouteNo="0" devices="tripinfo_220" vType="DEFAULT_VEHTYPE" speedFactor="1.00" vaporized=""/>
    <tripinfo id="192" depart="96.00" departLane="-E33_0" departPos="5.10" departSpeed="0.00" departDelay="0.00" arrival="152.00" arrivalLane="-E32_0" arrivalPos="89.60" arrivalSpeed="18.27" duration="56.00" routeLength="194.90" waitingTime="31.00" waitingCount="1" stopTime="0.00" timeLoss="44.69" rerouteNo="0" devices="tripinfo_192" vType="DEFAULT_VEHTYPE" speedFactor="0.94" vaporized=""/>
    <tripinfo id="228" depart="115.00" departLane="E27_0" departPos="5.10" departSpeed="0.00" departDelay="1.00" arrival="152.00" arrivalLane="E29_0" arrivalPos="89.60" arrivalSpeed="18.28" duration="37.00" routeLength="594.90" waitingTime="0.00" waitingCount="0" stopTime="0.00" timeLoss="5.59" rerouteNo="0" devices="tripinfo_228" vType="DEFAULT_VEHTYPE" speedFactor="0.95" vaporized=""/>
    <tripinfo id="265" depart="133.00" departLane="-E29_0" departPos="5.10" departSpeed="0.00" departDelay="0.50" arrival="152.00" arrivalLane="E30_0" arrivalPos="89.60" arrivalSpeed="20.99" duration="19.00" routeLength="183.13" waitingTime="0.00" waitingCount="0" stopTime="0.00" timeLoss="9.74" rerouteNo="0" devices="tripinfo_265" vType="DEFAULT_VEHTYPE" speedFactor="1.15" vaporized=""/>
    <tripinfo id="180" depart="90.00" departLane="E27_0" departPos="5.10" departSpeed="0.00" departDelay="0.00" arrival="153.00" arrivalLane="-E34_0" arrivalPos="89.60" arrivalSpeed="19.52" duration="63.00" routeLength="671.36" waitingTime="1.00" waitingCount="1" stopTime="0.00" timeLoss="29.29" rerouteNo="0" devices="tripinfo_180" vType="DEFAULT_VEHTYPE" speedFactor="1.08" vaporized=""/>
    <tripinfo id="200" depart="100.00" departLane="-E33_0" departPos="5.10" departSpeed="0.00" departDelay="0.00" arrival="153.00" arrivalLane="-E32_0" arrivalPos="89.60" arrivalSpeed="19.19" duration="53.00" routeLength="194.90" waitingTime="27.00" waitingCount="1" stopTime="0.00" timeLoss="43.17" rerouteNo="0" devices="tripinfo_200" vType="DEFAULT_VEHTYPE" speedFactor="1.03" vaporized=""/>
    <tripinfo id="188" depart="94.00" departLane="E23_0" departPos="5.10" departSpeed="0.00" departDelay="0.00" arrival="154.00" arrivalLane="-E34_1" arrivalPos="89.60" arrivalSpeed="18.21" duration="60.00" routeLength="193.45" waitingTime="31.00" waitingCount="2" stopTime="0.00" timeLoss="47.78" rerouteNo="0" devices="tripinfo_188" vType="DEFAULT_VEHTYPE" speedFactor="0.91" vaporized=""/>